#     DFTpy    
  CRYSTAL 
    
  PRIMVEC    
  4.56868965517241    0.0    0.0    
  0.0    4.56868965517241    0.0    
  0.0    0.0    4.56868965517241    
  PRIMCOORD    
  8    1    
  Si    0.0    0.0    0.0    
  Si    1.1421724137931002    1.1421724137931002    1.1421724137931002    
  Si    0.0    2.2843448275862106    2.2843448275862106    
  Si    1.1421724137931002    3.4265172413793104    3.4265172413793104    
  Si    2.2843448275862106    0.0    2.2843448275862106    
  Si    3.4265172413793104    1.1421724137931002    3.4265172413793104    
  Si    2.2843448275862106    2.2843448275862106    0.0    
  Si    3.4265172413793104    3.4265172413793104    1.1421724137931002    
  BEGIN_BLOCK_DATAGRID_3D    
  3d_datagrid_density    
  BEGIN_DATAGRID_3D#0    
  46    46    46    
  0.0    0.0    0.0    
  4.56868967221371    0.0    0.0    
  0.0    4.56868967221371    0.0    
  0.0    0.0    4.56868967221371    
  0.04533008928735017    0.05361339580398678    0.08192215110865309    0.13801802516146708    0.22533351482223885    
  0.3320181132621378    0.43011626560158084    0.4910536351483053    0.5034342100679814    0.4756224774424147    
  0.42468519076394384    0.3655324565453899    0.3073512151967936    0.2547703616069827    0.20967392863969844    
  0.1723624318176105    0.14232869256166447    0.11878389921302637    0.10088029832191565    0.08776446965354807    
  0.07864825502401517    0.0729081222592491    0.0701362634215513    0.07013626342155144    0.07290812225924914    
  0.0786482550240152    0.08776446965354814    0.10088029832191565    0.11878389921302647    0.14232869256166436    
  0.1723624318176106    0.2096739286396984    0.2547703616069827    0.3073512151967936    0.36553245654538996    
  0.42468519076394395    0.4756224774424147    0.5034342100679814    0.4910536351483052    0.4301162656015807    
  0.3320181132621378    0.2253335148222388    0.1380180251614671    0.08192215110865296    0.05361339580398671    
  0.04533008928735017    0.05361339580398671    0.06254235081425603    0.0925698927274348    0.150661340829377    
  0.23890325833506043    0.3443651599534357    0.4393062749537204    0.49656177294930653    0.5061178668842173    
  0.47679480245765105    0.42534449624201087    0.3661855270305064    0.308173441924272    0.2557826558208975    
  0.2108396479230588    0.1736326706772164    0.14366365757603264    0.12015713967797134    0.10227327495383554    
  0.08916221395969404    0.08004009134153006    0.07429004068290174    0.07151111579472832    0.07151111579472846    
  0.07429004068290179    0.08004009134153012    0.08916221395969415    0.10227327495383558    0.1201571396779714    
  0.1436636575760325    0.1736326706772165    0.2108396479230587    0.25578265582089743    0.308173441924272    
  0.36618552703050644    0.42534449624201104    0.47679480245765105    0.5061178668842173    0.49656177294930637    
  0.43930627495372016    0.3443651599534357    0.2389032583350604    0.15066134082937702    0.09256989272743477    
  0.06254235081425603    0.05361339580398671    0.08192215110865302    0.09256989272743477    0.1269958154987251    
  0.18968630019617608    0.27901243282437227    0.3795162305370061    0.4646115888136147    0.5112295172578151    
  0.5129807989810434    0.4796557929446208    0.42696874906456517    0.3679364451926976    0.3105045118759711    
  0.2587300807081135    0.2142851065679912    0.17742644259743576    0.14768297746158246    0.12431705789773742    
  0.10651173671485045    0.09342913960664039    0.084299998092703    0.07852800417527474    0.07573216804337939    
  0.07573216804337952    0.07852800417527478    0.08429999809270307    0.09342913960664043    0.10651173671485041    
  0.12431705789773738    0.14768297746158238    0.17742644259743587    0.2142851065679912    0.2587300807081135    
  0.31050451187597117    0.36793644519269764    0.4269687490645652    0.4796557929446208    0.5129807989810434    
  0.511229517257815    0.4646115888136147    0.37951623053700606    0.27901243282437227    0.18968630019617608    
  0.12699581549872505    0.0925698927274348    0.08192215110865302    0.1380180251614671    0.15066134082937713    
  0.18968630019617613    0.2556198319234848    0.3419490218247501    0.43104520327873835    0.49935543630282425    
  0.5299221065862095    0.5208252417391366    0.482435614476495    0.4285796659311491    0.37019584784942605    
  0.31396274946029396    0.2633701583829352    0.21988171536495615    0.18371742756383616    0.154450924884458    
  0.13140199508427985    0.11378988410771429    0.10080040889146001    0.09169352631988066    0.0859090037268006    
  0.0830978493703607    0.08309784937036084    0.08590900372680063    0.09169352631988072    0.1008004088914601    
  0.11378988410771429    0.1314019950842799    0.15445092488445789    0.18371742756383633    0.21988171536495607    
  0.2633701583829351    0.31396274946029396    0.3701958478494261    0.4285796659311493    0.482435614476495    
  0.5208252417391367    0.5299221065862095    0.49935543630282414    0.4310452032787383    0.3419490218247501    
  0.2556198319234848    0.18968630019617605    0.15066134082937704    0.1380180251614671    0.22533351482223893    
  0.23890325833506054    0.2790124328243724    0.34194902182475007    0.41722439826768004    0.48722377481372964    
  0.5334666968339633    0.5456455412153403    0.5254842373982227    0.4828067089425087    0.42882833144885846    
  0.37211955339171576    0.3180077836427358    0.2693855569336825    0.22749769201628345    0.1925366477308853    
  0.1641389038571559    0.14169636338073444    0.12447679617454462    0.11170614067787232    0.10269394761820547    
  0.09693469003680014    0.09412407320669358    0.09412407320669365    0.09693469003680014    0.10269394761820551    
  0.11170614067787238    0.12447679617454462    0.14169636338073446    0.16413890385715588    0.19253664773088539    
  0.2274976920162834    0.2693855569336825    0.3180077836427358    0.3721195533917158    0.4288283314488585    
  0.4828067089425087    0.5254842373982227    0.5456455412153401    0.5334666968339632    0.48722377481372964    
  0.41722439826768004    0.3419490218247501    0.2790124328243723    0.2389032583350605    0.22533351482223893    
  0.33201811326213787    0.34436515995343575    0.37951623053700606    0.4310452032787383    0.48722377481372964    
  0.533151553266927    0.556311022558088    0.5518398041143031    0.5232411488703487    0.478641838396891    
  0.4263953209012813    0.37284507117974425    0.32210165474056957    0.27650562111673804    0.23709535501490084    
  0.20405087375949058    0.1770855206548279    0.15567256957749667    0.13914161262953012    0.1267817406113465    
  0.11797972088169814    0.11230882541695392    0.1095260797844327    0.10952607978443274    0.11230882541695392    
  0.11797972088169814    0.12678174061134656    0.13914161262953012    0.15567256957749673    0.17708552065482788    
  0.20405087375949066    0.23709535501490084    0.276505621116738    0.32210165474056957    0.3728450711797443    
  0.42639532090128135    0.478641838396891    0.5232411488703488    0.551839804114303    0.5563110225580878    
  0.5331515532669271    0.48722377481372964    0.4310452032787383    0.37951623053700606    0.34436515995343575    
  0.33201811326213787    0.4301162656015807    0.4393062749537204    0.4646115888136147    0.49935543630282414    
  0.5334666968339633    0.5563110225580878    0.5605602024881521    0.5446271094581299    0.5120296544488502    
  0.46868846322637586    0.4204223985899736    0.37178771923850407    0.3259070713647951    0.2846309026342898    
  0.24880221863644142    0.21859344857697857    0.19379433798661094    0.1739611065080225    0.15850185774244455    
  0.1468008495653155    0.1383581811997579    0.13285660527618728    0.130136353568246    0.1301363535682461    
  0.13285660527618723    0.13835818119975798    0.1468008495653155    0.15850185774244455    0.17396110650802254    
  0.1937943379866109    0.21859344857697866    0.24880221863644136    0.2846309026342898    0.3259070713647951    
  0.3717877192385041    0.42042239858997366    0.46868846322637586    0.5120296544488502    0.5446271094581299    
  0.560560202488152    0.5563110225580878    0.5334666968339633    0.49935543630282414    0.4646115888136147    
  0.4393062749537204    0.4301162656015807    0.4910536351483053    0.4965617729493065    0.5112295172578152    
  0.5299221065862095    0.5456455412153403    0.5518398041143032    0.5446271094581299    0.5237553460283038    
  0.4918592748065305    0.4528907512582145    0.4108028590704742    0.36886745888773315    0.3294280710034538    
  0.293890578018174    0.2628994117676062    0.2366000056923546    0.2148336137089708    0.1972304252682886    
  0.18329698078917114    0.17255243878660995    0.16465214748937818    0.15942215070113883    0.1568093375519663    
  0.15680933755196638    0.15942215070113877    0.16465214748937834    0.17255243878661003    0.18329698078917117    
  0.19723042526828857    0.2148336137089708    0.23660000569235465    0.2628994117676062    0.293890578018174    
  0.3294280710034538    0.36886745888773326    0.4108028590704742    0.4528907512582145    0.4918592748065305    
  0.5237553460283036    0.5446271094581298    0.5518398041143031    0.5456455412153403    0.5299221065862095    
  0.5112295172578151    0.49656177294930653    0.4910536351483053    0.5034342100679814    0.5061178668842173    
  0.5129807989810434    0.5208252417391367    0.5254842373982228    0.5232411488703488    0.5120296544488503    
  0.49185927480653074    0.4644186428000843    0.43228867673745225    0.3982063898478712    0.36454243839360295    
  0.3330050087533776    0.3045875195475762    0.27972032887566706    0.2584748864542524    0.24069153817695113    
  0.22605050492487994    0.21417175048835638    0.20474712531888128    0.1976269054489894    0.19281100155587186    
  0.19037230881553593    0.190372308815536    0.19281100155587186    0.19762690544898945    0.20474712531888137    
  0.21417175048835638    0.22605050492488    0.24069153817695105    0.25847488645425243    0.279720328875667    
  0.30458751954757624    0.3330050087533776    0.364542438393603    0.3982063898478712    0.43228867673745225    
  0.4644186428000844    0.49185927480653074    0.5120296544488502    0.5232411488703488    0.5254842373982228    
  0.5208252417391367    0.5129807989810434    0.5061178668842173    0.5034342100679814    0.4756224774424147    
  0.4767948024576511    0.4796557929446207    0.482435614476495    0.4828067089425088    0.478641838396891    
  0.468688463226376    0.4528907512582145    0.43228867673745225    0.40862404780031575    0.3838398997913917    
  0.3596299487933342    0.3371662717699113    0.3170658788101237    0.2995248880808858    0.28447236712340895    
  0.2716700417535233    0.26080126836624234    0.2515939853060205    0.24393479002515092    0.2378996906980184    
  0.23368872590142767    0.23151652347612228    0.2315165234761224    0.23368872590142767    0.2378996906980184    
  0.243934790025151    0.2515939853060205    0.26080126836624234    0.2716700417535232    0.284472367123409    
  0.2995248880808858    0.3170658788101237    0.3371662717699114    0.3596299487933343    0.38383989979139177    
  0.40862404780031575    0.43228867673745225    0.4528907512582145    0.46868846322637586    0.4786418383968911    
  0.4828067089425087    0.48243561447649513    0.4796557929446207    0.4767948024576511    0.4756224774424147    
  0.424685190763944    0.42534449624201115    0.4269687490645652    0.4285796659311492    0.4288283314488586    
  0.42639532090128135    0.4204223985899736    0.4108028590704743    0.3982063898478712    0.3838398997913917    
  0.3690616214992089    0.35501645066138743    0.34242830670286367    0.3315809956894099    0.32241145878481897    
  0.31462282055543656    0.30779900694258333    0.30155159347456706    0.2956813912478093    0.2902709850718433    
  0.28564675543405116    0.28223957486306156    0.28042827803423304    0.28042827803423315    0.2822395748630615    
  0.28564675543405127    0.29027098507184335    0.29568139124780923    0.30155159347456706    0.3077990069425833    
  0.31462282055543656    0.32241145878481897    0.3315809956894099    0.3424283067028637    0.35501645066138743    
  0.3690616214992089    0.3838398997913917    0.3982063898478712    0.4108028590704742    0.4204223985899735    
  0.42639532090128135    0.4288283314488586    0.4285796659311493    0.4269687490645652    0.42534449624201115    
  0.424685190763944    0.3655324565453899    0.36618552703050633    0.36793644519269775    0.37019584784942605    
  0.3721195533917158    0.3728450711797443    0.3717877192385041    0.36886745888773326    0.36454243839360295    
  0.3596299487933343    0.3550164506613873    0.35139760949804283    0.3491310717553547    0.3481982762952207    
  0.34823576980795534    0.34862500762185783    0.3486613420274108    0.34779182016104304    0.34583361441769145    
  0.3430527611675226    0.3400541014625676    0.33755072084466514    0.3361356831325756    0.3361356831325757    
  0.3375507208446652    0.3400541014625677    0.3430527611675226    0.34583361441769145    0.34779182016104304    
  0.3486613420274107    0.3486250076218578    0.34823576980795534    0.34819827629522065    0.34913107175535485    
  0.3513976094980429    0.3550164506613873    0.3596299487933342    0.3645424383936029    0.36886745888773315    
  0.3717877192385041    0.3728450711797443    0.3721195533917158    0.370195847849426    0.36793644519269775    
  0.3661855270305064    0.3655324565453899    0.30735121519679365    0.3081734419242721    0.3105045118759712    
  0.3139627494602939    0.31800778364273585    0.32210165474056957    0.3259070713647951    0.3294280710034539    
  0.3330050087533775    0.3371662717699115    0.34242830670286367    0.3491310717553548    0.35732325679550037    
  0.36667803075906    0.37646398313184554    0.38563991823283356    0.3931070733012716    0.39805362352601426    
  0.40024411726352693    0.4001081966964552    0.39857887164093814    0.39676226101637635    0.39559289831089767    
  0.3955928983108977    0.39676226101637635    0.39857887164093825    0.4001081966964552    0.40024411726352693    
  0.3980536235260143    0.3931070733012716    0.3856399182328336    0.3764639831318454    0.36667803075906    
  0.3573232567955005    0.34913107175535485    0.3424283067028637    0.3371662717699115    0.3330050087533775    
  0.3294280710034538    0.3259070713647951    0.32210165474056957    0.31800778364273585    0.3139627494602939    
  0.31050451187597117    0.3081734419242721    0.30735121519679365    0.25477036160698274    0.25578265582089743    
  0.25873008070811354    0.2633701583829352    0.26938555693368244    0.276505621116738    0.2846309026342898    
  0.293890578018174    0.3045875195475761    0.3170658788101237    0.33158099568940985    0.3481982762952207    
  0.36667803075906014    0.3863381369859196    0.4059908146971111    0.42407283664489054    0.438985935709937    
  0.44954172180897056    0.4553493192495503    0.45698680743546405    0.4558535292714551    0.4537283611516058    
  0.4522030910603629    0.45220309106036305    0.4537283611516058    0.45585352927145517    0.45698680743546405    
  0.4553493192495503    0.44954172180897056    0.43898593570993677    0.4240728366448906    0.405990814697111    
  0.3863381369859196    0.36667803075906014    0.3481982762952207    0.3315809956894099    0.3170658788101237    
  0.3045875195475761    0.2938905780181739    0.2846309026342898    0.27650562111673804    0.26938555693368244    
  0.2633701583829352    0.25873008070811354    0.25578265582089743    0.25477036160698274    0.20967392863969847    
  0.21083964792305873    0.21428510656799127    0.2198817153649561    0.22749769201628345    0.23709535501490075    
  0.24880221863644142    0.26289941176760623    0.27972032887566706    0.29952488808088573    0.32241145878481897    
  0.34823576980795534    0.3764639831318454    0.4059908146971112    0.43507415708576036    0.46150597904107843    
  0.4830108029724161    0.4977963387580001    0.5051511511541402    0.5058739773198341    0.5022318211700544    
  0.4973115144969641    0.49399397214724006    0.49399397214724006    0.4973115144969641    0.5022318211700544    
  0.5058739773198341    0.5051511511541402    0.4977963387580001    0.48301080297241605    0.46150597904107843    
  0.43507415708576025    0.4059908146971111    0.3764639831318456    0.34823576980795534    0.32241145878481897    
  0.2995248880808858    0.279720328875667    0.2628994117676062    0.24880221863644142    0.23709535501490075    
  0.22749769201628345    0.21988171536495607    0.21428510656799127    0.21083964792305873    0.20967392863969847    
  0.1723624318176106    0.17363267067721644    0.17742644259743587    0.18371742756383627    0.1925366477308854    
  0.20405087375949063    0.21859344857697866    0.2366000056923548    0.25847488645425243    0.284472367123409    
  0.31462282055543667    0.348625007621858    0.38563991823283356    0.4240728366448906    0.46150597904107843    
  0.4948581875500551    0.5208010643719474    0.5365305818873217    0.5408738557906323    0.5352466962037137    
  0.5236872879450581    0.5116574552897349    0.5041731572950066    0.5041731572950066    0.5116574552897349    
  0.5236872879450583    0.5352466962037137    0.5408738557906323    0.5365305818873217    0.5208010643719474    
  0.49485818755005523    0.46150597904107843    0.4240728366448906    0.3856399182328336    0.348625007621858    
  0.31462282055543667    0.284472367123409    0.2584748864542524    0.23660000569235468    0.2185934485769786    
  0.20405087375949063    0.1925366477308854    0.18371742756383622    0.17742644259743587    0.1736326706772164    
  0.1723624318176106    0.14232869256166414    0.14366365757603247    0.14768297746158232    0.15445092488445786    
  0.16413890385715577    0.17708552065482772    0.1937943379866109    0.21483361370897067    0.24069153817695094    
  0.27167004175352316    0.3077990069425831    0.3486613420274106    0.39310707330127154    0.43898593570993677    
  0.48301080297241594    0.5208010643719474    0.5473542902829367    0.558393751600913    0.552497381627122    
  0.5327569331663679    0.5064232073373698    0.4824263434256344    0.46833888177167543    0.4683388817716755    
  0.48242634342563445    0.5064232073373699    0.5327569331663679    0.552497381627122    0.558393751600913    
  0.5473542902829367    0.5208010643719474    0.48301080297241594    0.43898593570993677    0.39310707330127154    
  0.3486613420274106    0.3077990069425832    0.27167004175352316    0.2406915381769509    0.2148336137089706    
  0.19379433798661083    0.1770855206548278    0.16413890385715577    0.1544509248844578    0.14768297746158232    
  0.14366365757603247    0.14232869256166414    0.11878389921302637    0.12015713967797144    0.12431705789773742    
  0.13140199508427985    0.14169636338073452    0.15567256957749676    0.17396110650802246    0.1972304252682886    
  0.22605050492488    0.26080126836624234    0.30155159347456706    0.3477918201610431    0.3980536235260142    
  0.4495417218089707    0.4977963387580001    0.5365305818873216    0.5583937516009132    0.557538472234702    
  0.5333163604896329    0.4923186866649259    0.44645946818964216    0.4082732997083465    0.38693953064591485    
  0.38693953064591496    0.4082732997083466    0.4464594681896423    0.4923186866649258    0.5333163604896329    
  0.557538472234702    0.5583937516009132    0.5365305818873217    0.4977963387580001    0.44954172180897056    
  0.39805362352601426    0.34779182016104315    0.30155159347456706    0.2608012683662423    0.22605050492487988    
  0.19723042526828855    0.1739611065080224    0.15567256957749673    0.14169636338073452    0.13140199508427977    
  0.12431705789773746    0.12015713967797144    0.11878389921302637    0.10088029832191575    0.10227327495383567    
  0.10651173671485055    0.11378988410771429    0.12447679617454467    0.13914161262953015    0.15850185774244452    
  0.18329698078917117    0.21417175048835638    0.25159398530602056    0.2956813912478092    0.34583361441769156    
  0.4002441172635269    0.4553493192495502    0.5051511511541402    0.5408738557906322    0.552497381627122    
  0.5333163604896329    0.48538555255788857    0.4208111170682534    0.3566027719956133    0.3072662866407179    
  0.28107478728261176    0.2810747872826119    0.3072662866407179    0.35660277199561335    0.42081111706825336    
  0.48538555255788857    0.5333163604896329    0.552497381627122    0.5408738557906322    0.5051511511541401    
  0.4553493192495502    0.400244117263527    0.34583361441769156    0.2956813912478093    0.25159398530602056    
  0.21417175048835635    0.18329698078917114    0.15850185774244452    0.13914161262953006    0.12447679617454471    
  0.11378988410771425    0.10651173671485055    0.10227327495383573    0.10088029832191575    0.08776446965354819    
  0.08916221395969408    0.0934291396066404    0.1008004088914601    0.11170614067787232    0.12678174061134648    
  0.1468008495653155    0.17255243878661    0.20474712531888134    0.24393479002515095    0.29027098507184323    
  0.3430527611675226    0.4001081966964552    0.45698680743546405    0.5058739773198341    0.5352466962037137    
  0.5327569331663679    0.4923186866649257    0.42081111706825347    0.33693030283748704    0.26152584456066674    
  0.2081478283237566    0.1813877086308968    0.18138770863089698    0.2081478283237566    0.26152584456066674    
  0.336930302837487    0.42081111706825347    0.4923186866649259    0.5327569331663679    0.5352466962037137    
  0.5058739773198341    0.4569868074354641    0.40010819669645525    0.34305276116752265    0.2902709850718433    
  0.24393479002515095    0.20474712531888117    0.17255243878660995    0.1468008495653155    0.12678174061134642    
  0.11170614067787238    0.10080040889146005    0.09342913960664045    0.08916221395969408    0.08776446965354819    
  0.07864825502401497    0.08004009134152992    0.08429999809270303    0.09169352631988058    0.10269394761820531    
  0.117979720881698    0.13835818119975796    0.16465214748937815    0.19762690544898928    0.23789969069801825    
  0.2856467554340511    0.34005410146256754    0.3985788716409381    0.4558535292714551    0.5022318211700543    
  0.523687287945058    0.5064232073373698    0.44645946818964216    0.35660277199561335    0.26152584456066674    
  0.18356438026912233    0.13281599174325368    0.10892825798507724    0.10892825798507734    0.13281599174325365    
  0.18356438026912236    0.2615258445606667    0.3566027719956133    0.44645946818964216    0.5064232073373698    
  0.523687287945058    0.5022318211700543    0.455853529271455    0.3985788716409382    0.3400541014625676    
  0.285646755434051    0.23789969069801825    0.19762690544898917    0.1646521474893781    0.1383581811997579    
  0.117979720881698    0.10269394761820537    0.09169352631988058    0.08429999809270305    0.08004009134152991    
  0.07864825502401497    0.07290812225924914    0.07429004068290183    0.07852800417527478    0.08590900372680066    
  0.09693469003680022    0.11230882541695388    0.13285660527618728    0.15942215070113877    0.19281100155587186    
  0.23368872590142778    0.28223957486306156    0.3375507208446652    0.39676226101637635    0.4537283611516059    
  0.4973115144969641    0.5116574552897348    0.4824263434256343    0.40827329970834647    0.30726628664071803    
  0.20814782832375678    0.13281599174325356    0.08733619633871152    0.06718212190406589    0.06718212190406601    
  0.0873361963387115    0.13281599174325376    0.20814782832375672    0.30726628664071803    0.40827329970834647    
  0.4824263434256343    0.5116574552897348    0.497311514496964    0.4537283611516058    0.3967622610163764    
  0.33755072084466525    0.28223957486306156    0.23368872590142778    0.19281100155587172    0.15942215070113877    
  0.13285660527618717    0.11230882541695388    0.09693469003680022    0.08590900372680066    0.07852800417527482    
  0.07429004068290188    0.07290812225924914    0.07013626342155138    0.0715111157947285    0.07573216804337962    
  0.08309784937036087    0.09412407320669372    0.10952607978443274    0.1301363535682461    0.15680933755196644    
  0.19037230881553605    0.2315165234761224    0.28042827803423315    0.33613568313257564    0.3955928983108976    
  0.45220309106036305    0.49399397214724    0.5041731572950064    0.4683388817716755    0.3869395306459148    
  0.28107478728261176    0.18138770863089684    0.1089282579850773    0.06718212190406578    0.04939744286979447    
  0.04939744286979454    0.06718212190406571    0.10892825798507737    0.1813877086308969    0.28107478728261176    
  0.3869395306459148    0.46833888177167543    0.5041731572950064    0.49399397214724006    0.45220309106036305    
  0.3955928983108977    0.33613568313257575    0.2804282780342331    0.2315165234761224    0.19037230881553585    
  0.15680933755196647    0.13013635356824604    0.1095260797844326    0.09412407320669375    0.08309784937036091    
  0.07573216804337966    0.07151111579472846    0.07013626342155138    0.07013626342155144    0.07151111579472841    
  0.07573216804337965    0.08309784937036081    0.09412407320669364    0.10952607978443264    0.13013635356824604    
  0.15680933755196647    0.190372308815536    0.23151652347612228    0.28042827803423315    0.33613568313257575    
  0.3955928983108977    0.45220309106036305    0.49399397214724    0.5041731572950064    0.46833888177167543    
  0.38693953064591485    0.28107478728261176    0.18138770863089695    0.10892825798507731    0.06718212190406588    
  0.049397442869794445    0.04939744286979454    0.06718212190406578    0.10892825798507731    0.1813877086308969    
  0.28107478728261176    0.38693953064591474    0.46833888177167543    0.5041731572950064    0.49399397214724    
  0.45220309106036305    0.3955928983108978    0.33613568313257575    0.2804282780342331    0.2315165234761224    
  0.1903723088155358    0.15680933755196638    0.13013635356824604    0.1095260797844326    0.09412407320669375    
  0.08309784937036084    0.07573216804337966    0.07151111579472846    0.07013626342155144    0.07290812225924917    
  0.0742900406829018    0.07852800417527478    0.0859090037268006    0.09693469003680022    0.11230882541695392    
  0.13285660527618723    0.15942215070113888    0.19281100155587186    0.23368872590142772    0.28223957486306156    
  0.3375507208446652    0.39676226101637635    0.4537283611516059    0.497311514496964    0.5116574552897348    
  0.4824263434256344    0.4082732997083466    0.307266286640718    0.20814782832375672    0.1328159917432536    
  0.0873361963387115    0.06718212190406588    0.06718212190406596    0.08733619633871155    0.13281599174325368    
  0.20814782832375667    0.307266286640718    0.40827329970834647    0.4824263434256344    0.5116574552897349    
  0.497311514496964    0.4537283611516058    0.3967622610163764    0.3375507208446652    0.28223957486306156    
  0.23368872590142767    0.1928110015558717    0.1594221507011388    0.13285660527618723    0.11230882541695388    
  0.09693469003680028    0.08590900372680063    0.07852800417527488    0.07429004068290188    0.07290812225924917    
  0.07864825502401497    0.08004009134152992    0.08429999809270303    0.09169352631988065    0.10269394761820531    
  0.11797972088169804    0.13835818119975796    0.16465214748937823    0.19762690544898937    0.23789969069801825    
  0.285646755434051    0.34005410146256754    0.39857887164093814    0.4558535292714551    0.5022318211700543    
  0.523687287945058    0.5064232073373698    0.4464594681896421    0.35660277199561324    0.26152584456066674    
  0.18356438026912228    0.1328159917432537    0.10892825798507721    0.10892825798507737    0.13281599174325368    
  0.18356438026912236    0.26152584456066663    0.3566027719956133    0.44645946818964216    0.5064232073373698    
  0.523687287945058    0.5022318211700543    0.455853529271455    0.3985788716409382    0.3400541014625676    
  0.28564675543405105    0.23789969069801825    0.19762690544898914    0.1646521474893781    0.13835818119975796    
  0.117979720881698    0.10269394761820537    0.09169352631988065    0.08429999809270307    0.08004009134152988    
  0.07864825502401497    0.08776446965354819    0.08916221395969418    0.09342913960664052    0.10080040889146015    
  0.11170614067787232    0.12678174061134642    0.1468008495653155    0.17255243878660997    0.20474712531888134    
  0.24393479002515095    0.29027098507184323    0.3430527611675226    0.4001081966964552    0.4569868074354641    
  0.5058739773198341    0.5352466962037137    0.5327569331663679    0.4923186866649258    0.4208111170682534    
  0.336930302837487    0.2615258445606667    0.20814782832375667    0.18138770863089682    0.18138770863089695    
  0.20814782832375664    0.2615258445606668    0.336930302837487    0.4208111170682534    0.4923186866649258    
  0.5327569331663679    0.5352466962037137    0.5058739773198341    0.45698680743546394    0.40010819669645525    
  0.3430527611675227    0.29027098507184323    0.24393479002515095    0.20474712531888123    0.17255243878660995    
  0.1468008495653155    0.12678174061134642    0.11170614067787238    0.10080040889146015    0.09342913960664047    
  0.08916221395969413    0.08776446965354819    0.10088029832191575    0.10227327495383567    0.10651173671485055    
  0.11378988410771435    0.12447679617454467    0.13914161262953015    0.15850185774244452    0.18329698078917117    
  0.21417175048835638    0.25159398530602056    0.2956813912478092    0.34583361441769156    0.4002441172635269    
  0.4553493192495502    0.5051511511541402    0.5408738557906322    0.552497381627122    0.5333163604896329    