#     DFTpy    
  CRYSTAL 
    
  PRIMVEC    
  5.467448275862071    0.0    0.0    
  0.0    5.467448275862071    0.0    
  0.0    0.0    5.467448275862071    
  PRIMCOORD    
  8    1    
  Si    0.0    0.0    0.0    
  Si    1.3668620689655204    1.3668620689655204    1.3668620689655204    
  Si    0.0    2.733724137931031    2.733724137931031    
  Si    1.3668620689655204    4.100586206896552    4.100586206896552    
  Si    2.733724137931031    0.0    2.733724137931031    
  Si    4.100586206896552    1.3668620689655204    4.100586206896552    
  Si    2.733724137931031    2.733724137931031    0.0    
  Si    4.100586206896552    4.100586206896552    1.3668620689655204    
  BEGIN_BLOCK_DATAGRID_3D    
  3d_datagrid_density    
  BEGIN_DATAGRID_3D#0    
  55    55    55    
  0.0    0.0    0.0    
  5.467448296255758    0.0    0.0    
  0.0    5.467448296255758    0.0    
  0.0    0.0    5.467448296255758    
  0.04531769527916852    0.05248559545055294    0.07652879982304774    0.12276409804141335    0.19218371088268366    
  0.2734188136898027    0.343714585988077    0.3821366268148176    0.3825765224882454    0.3538531869445597    
  0.3101104012326094    0.2626586670974878    0.21786488697846257    0.1784838190090368    0.1452579539243046    
  0.11789904622324439    0.09569673894417603    0.07788564598202485    0.06376271960030426    0.052674141478118074    
  0.04402415171096207    0.03731972466640468    0.03218548115827004    0.028337226089570226    0.025555167914567637    
  0.02367599604527165    0.02259006139791654    0.022234884301812755    0.022590061397916493    0.023675996045271694    
  0.025555167914567637    0.02833722608957027    0.03218548115826992    0.03731972466640468    0.04402415171096205    
  0.052674141478118094    0.0637627196003043    0.07788564598202485    0.09569673894417607    0.11789904622324435    
  0.14525795392430457    0.17848381900903676    0.21786488697846257    0.26265866709748775    0.3101104012326094    
  0.3538531869445597    0.38257652248824553    0.38213662681481764    0.343714585988077    0.27341881368980264    
  0.19218371088268366    0.12276409804141335    0.07652879982304778    0.05248559545055292    0.04531769527916852    
  0.05248559545055294    0.060121974912012134    0.08536351569210382    0.1328305893521212    0.20245222123698986    
  0.2821501570752937    0.34955299654057204    0.38495004753956874    0.3832660634744123    0.3535483100659357    
  0.3095962487245626    0.2622958530069081    0.217748180587871    0.17859126949004464    0.1455292576969558    
  0.11827142882321572    0.09612146936631343    0.07833126499983044    0.06421049872225813    0.05311319670198418    
  0.04444912327583929    0.037729331375935746    0.03258062856960427    0.02871947189492026    0.025926354012510738    
  0.024038549530677123    0.022947119464846184    0.022590060643335914    0.02294711946484609    0.024038549530677123    
  0.025926354012510786    0.028719471894920332    0.03258062856960417    0.03772933137593577    0.04444912327583925    
  0.0531131967019842    0.06421049872225819    0.0783312649998304    0.09612146936631345    0.11827142882321566    
  0.1455292576969557    0.17859126949004459    0.21774818058787102    0.26229585300690805    0.3095962487245626    
  0.3535483100659357    0.38326606347441233    0.38495004753956874    0.34955299654057204    0.2821501570752937    
  0.20245222123698994    0.13283058935212122    0.08536351569210389    0.06012197491201214    0.05248559545055294    
  0.07652879982304768    0.08536351569210376    0.11352045418500412    0.16352797790231063    0.2324580224878825    
  0.3066794258080547    0.3652955115532387    0.39206730774532134    0.38457737517595053    0.3522754362201069    
  0.3078939487678548    0.2611229137891976    0.2173371140452453    0.17886089784275822    0.14629771665201774    
  0.11935403321034445    0.09737527044275403    0.07966230675339736    0.06556026731860662    0.05444537661125823    
  0.04574391774055331    0.0389798498538924    0.033787628128758684    0.029886903861699673    0.02705997785572885    
  0.025146209609433635    0.024038547022859093    0.023675992776197436    0.024038547022859093    0.025146209609433683    
  0.02705997785572885    0.029886903861699766    0.033787628128758615    0.03897984985389238    0.04574391774055329    
  0.054445376611258325    0.06556026731860662    0.07966230675339735    0.09737527044275406    0.11935403321034442    
  0.1462977166520177    0.17886089784275816    0.2173371140452453    0.2611229137891976    0.3078939487678549    
  0.3522754362201069    0.38457737517595064    0.3920673077453213    0.3652955115532387    0.30667942580805474    
  0.23245802248788244    0.16352797790231063    0.11352045418500417    0.0853635156921038    0.07652879982304768    
  0.12276409804141335    0.13283058935212122    0.16352797790231066    0.21423147776152732    0.2784688847655453    
  0.34160984282447493    0.3858427464755099    0.3999062715018232    0.3845240369378301    0.3491015359912022    
  0.3045782590556784    0.2589076283670405    0.2164636557821281    0.17915034618561052    0.1474431589080823    
  0.12105684648019167    0.09940540010437453    0.08186356834003429    0.06782825319928984    0.05670946732602919    
  0.047961139666629266    0.041130495655784916    0.03586745507773308    0.031900154873201324    0.029016414094971268    
  0.027059973145422564    0.025926346734873183    0.02555515984239739    0.025926346734873183    0.027059973145422564    
  0.029016414094971316    0.031900154873201345    0.035867455077733056    0.041130495655784916    0.04796113966662922    
  0.05670946732602919    0.06782825319928984    0.08186356834003428    0.09940540010437461    0.12105684648019166    
  0.1474431589080823    0.17915034618561043    0.2164636557821281    0.2589076283670405    0.3045782590556785    
  0.3491015359912022    0.38452403693783016    0.3999062715018232    0.3858427464755099    0.34160984282447493    
  0.2784688847655454    0.21423147776152737    0.1635279779023107    0.13283058935212125    0.12276409804141335    
  0.1921837108826836    0.20245222123698986    0.2324580224878824    0.2784688847655453    0.3314786045176168    
  0.37768935335530746    0.4038316026843629    0.4037994328922664    0.3806644623042608    0.3428938667899038    
  0.2991102199892249    0.2553364315795401    0.21489741747879895    0.17926938807712306    0.14881001086272144    
  0.12326629429117643    0.1021466192986681    0.0849169600581958    0.07103616456041367    0.059957716037500386    
  0.051174856770247926    0.044269578612435134    0.03891674956312452    0.034860566153589664    0.03190014795002696    
  0.029886892077070595    0.028719457340244194    0.028337210644582698    0.02871945734024417    0.029886892077070595    
  0.03190014795002696    0.03486056615358969    0.03891674956312447    0.044269578612435134    0.05117485677024788    
  0.059957716037500434    0.07103616456041367    0.0849169600581958    0.10214661929866814    0.1232662942911764    
  0.14881001086272136    0.179269388077123    0.21489741747879895    0.25533643157954006    0.29911021998922493    
  0.3428938667899038    0.38066446230426093    0.4037994328922664    0.40383160268436297    0.37768935335530734    
  0.33147860451761685    0.27846888476554527    0.23245802248788244    0.20245222123698986    0.1921837108826836    
  0.2734188136898027    0.28215015707529373    0.3066794258080548    0.34160984282447493    0.37768935335530734    
  0.40393338427836517    0.41199038564266177    0.39972658324521243    0.37107957365033634    0.33278385902744817    
  0.29104772547017455    0.25012311413581045    0.21241546689768853    0.17903250033190635    0.1502490393193144    
  0.12587668788037945    0.10554153681377128    0.08881161589276078    0.0752141290043493    0.06425545711824959    
  0.05548014818010349    0.04851601259876656    0.04307205578074483    0.03891674102749402    0.035867439384939484    
  0.033787607143217074    0.03258060433891841    0.03218545582377406    0.032580604338918365    0.033787607143217026    
  0.03586743938493944    0.038916741027494046    0.043072055780744786    0.04851601259876659    0.05548014818010346    
  0.06425545711824963    0.0752141290043493    0.08881161589276079    0.10554153681377129    0.12587668788037942    
  0.15024903931931435    0.1790325003319063    0.21241546689768853    0.25012311413581045    0.29104772547017455    
  0.33278385902744817    0.37107957365033634    0.3997265832452123    0.4119903856426619    0.40393338427836506    
  0.37768935335530734    0.34160984282447493    0.3066794258080548    0.2821501570752937    0.2734188136898027    
  0.3437145859880769    0.34955299654057204    0.3652955115532387    0.3858427464755099    0.4038316026843629    
  0.41199038564266177    0.4059772475826478    0.3858386194566302    0.35510224365054    0.31852268591644    
  0.280243815971307    0.2431311186085787    0.2088773912669913    0.17830350153698118    0.15164456609737104    
  0.12880823151857057    0.10955378293044621    0.09355484947405218    0.08041099339580361    0.06969108233167627    
  0.06100219152172036    0.05402696847012808    0.048516002874354446    0.044269559890325626    0.041130469087460444    
  0.03897981706694609    0.037729294428177934    0.037319686218775065    0.037729294428177934    0.03897981706694609    
  0.041130469087460444    0.044269559890325605    0.048516002874354425    0.054026968470128126    0.06100219152172036    
  0.06969108233167634    0.08041099339580364    0.09355484947405218    0.10955378293044626    0.12880823151857054    
  0.151644566097371    0.17830350153698118    0.20887739126699134    0.24313111860857864    0.2802438159713071    
  0.31852268591644006    0.35510224365054005    0.38583861945663017    0.4059772475826478    0.41199038564266177    
  0.4038316026843629    0.3858427464755099    0.3652955115532387    0.34955299654057204    0.3437145859880769    
  0.3821366268148176    0.3849500475395687    0.39206730774532134    0.3999062715018232    0.40379943289226644    
  0.39972658324521243    0.3858386194566302    0.3628909482586132    0.3334442347311996    0.3005764615820241    
  0.2669457189366069    0.23445248349969455    0.20427315692123618    0.17701901354617733    0.15292467929593465    
  0.13201204294441948    0.11417236695016447    0.09917800898623359    0.08670182237075094    0.07638380099713987    
  0.06790263736002976    0.061002180439271365    0.055480126159490335    0.05117482426806457    0.04796109776066126    
  0.04574386791055137    0.04444906777013404    0.044024094078081895    0.04444906777013404    0.04574386791055142    
  0.04796109776066126    0.05117482426806452    0.055480126159490266    0.061002180439271345    0.06790263736002973    
  0.07638380099713987    0.08670182237075091    0.09917800898623357    0.11417236695016447    0.13201204294441948    
  0.15292467929593462    0.17701901354617722    0.20427315692123618    0.23445248349969455    0.2669457189366069    
  0.3005764615820241    0.33344423473119966    0.3628909482586131    0.3858386194566302    0.39972658324521243    
  0.4037994328922664    0.3999062715018232    0.3920673077453214    0.3849500475395687    0.3821366268148176    
  0.3825765224882454    0.38326606347441233    0.38457737517595053    0.3845240369378301    0.38066446230426093    
  0.37107957365033634    0.35510224365054005    0.3334442347311996    0.307750646215023    0.2799471706510288    
  0.25174042748835923    0.22439406424204159    0.19872066623417772    0.17519030009193962    0.15406387444152542    
  0.13547096255580254    0.11941047683465991    0.10573492672530012    0.09418759722671347    0.08448537122218447    
  0.07638378867080005    0.06969105646503009    0.0642554169684509    0.05995766218843382    0.05670940110032351    
  0.05444529964474961    0.053113111822026146    0.052674053593289416    0.053113111822026125    0.05444529964474961    
  0.056709401100323485    0.05995766218843382    0.06425541696845084    0.06969105646503009    0.07638378867080003    
  0.08448537122218437    0.09418759722671347    0.10573492672530008    0.11941047683465991    0.13547096255580252    
  0.15406387444152536    0.17519030009193956    0.19872066623417772    0.22439406424204153    0.25174042748835934    
  0.2799471706510288    0.30775064621502307    0.33344423473119955    0.35510224365054005    0.37107957365033634    
  0.38066446230426093    0.3845240369378301    0.38457737517595053    0.38326606347441233    0.3825765224882454    
  0.3538531869445597    0.3535483100659357    0.3522754362201069    0.34910153599120225    0.3428938667899038    
  0.33278385902744817    0.3185226859164402    0.3005764615820241    0.2799471706510288    0.25784380056485406    
  0.23537443026374724    0.21337841370224175    0.19242236658288314    0.17289423040169247    0.15508709541168858    
  0.13920331429934274    0.12530586003584387    0.11330161058867079    0.10299770697241707    0.09418758443758984    
  0.08670179364439808    0.08041094543023487    0.0752140606248877    0.07103607682570805    0.06782814803539504    
  0.06556014706783624    0.06421036746314214    0.06376258419876299    0.06421036746314211    0.06556014706783624    
  0.06782814803539503    0.07103607682570807    0.07521406062488765    0.08041094543023485    0.08670179364439808    
  0.09418758443758984    0.10299770697241707    0.11330161058867079    0.1253058600358439    0.1392033142993427    
  0.15508709541168858    0.1728942304016924    0.19242236658288314    0.21337841370224175    0.2353744302637473    
  0.25784380056485406    0.2799471706510288    0.3005764615820241    0.3185226859164402    0.33278385902744817    
  0.34289386678990386    0.34910153599120225    0.3522754362201069    0.3535483100659357    0.3538531869445597    
  0.31011040123260947    0.3095962487245626    0.30789394876785486    0.3045782590556784    0.29911021998922493    
  0.29104772547017455    0.2802438159713071    0.2669457189366069    0.25174042748835934    0.23537443026374724    
  0.21855283604084222    0.20182905225021783    0.1856176415284958    0.17026403834153964    0.1560737745061644    
  0.14326862427665005    0.13192727597208614    0.1219852435889654    0.11330159796025867    0.10573489682079099    
  0.09917795544462564    0.09355476742512249    0.0888115040102782    0.08491681996800012    0.0818634029144482    
  0.07966211986359732    0.07833106296854599    0.07788543838628487    0.07833106296854603    0.07966211986359735    
  0.08186340291444821    0.08491681996800012    0.0888115040102782    0.09355476742512249    0.09917795544462561    
  0.10573489682079099    0.11330159796025867    0.12198524358896538    0.13192727597208614    0.14326862427665005    
  0.15607377450616433    0.1702640383415396    0.18561764152849583    0.20182905225021783    0.21855283604084227    
  0.23537443026374724    0.25174042748835934    0.26694571893660685    0.2802438159713071    0.29104772547017455    
  0.29911021998922493    0.3045782590556784    0.3078939487678549    0.3095962487245626    0.31011040123260947    
  0.26265866709748775    0.26229585300690805    0.2611229137891976    0.2589076283670405    0.2553364315795401    
  0.25012311413581045    0.24313111860857875    0.23445248349969458    0.22439406424204159    0.21337841370224175    
  0.20182905225021783    0.1901142332196904    0.17856043204052055    0.16747952356340695    0.15715135008987827    
  0.1477650997593889    0.13937681244572173    0.13192726420123715    0.12530583012946805    0.11941041997858585    
  0.11417227416685892    0.1095536482690437    0.10554135889663713    0.10214640030767316    0.09940514431085243    
  0.09737498432642472    0.09612116273372871    0.09569642498967779    0.09612116273372871    0.09737498432642477    
  0.09940514431085246    0.10214640030767318    0.10554135889663706    0.1095536482690437    0.11417227416685892    
  0.11941041997858588    0.12530583012946805    0.13192726420123713    0.1393768124457217    0.14776509975938887    
  0.15715135008987824    0.16747952356340698    0.17856043204052055    0.1901142332196904    0.20182905225021783    
  0.21337841370224175    0.22439406424204159    0.23445248349969458    0.24313111860857875    0.25012311413581045    
  0.2553364315795401    0.2589076283670405    0.26112291378919766    0.26229585300690805    0.26265866709748775    
  0.21786488697846257    0.21774818058787102    0.2173371140452453    0.2164636557821281    0.21489741747879895    
  0.21241546689768848    0.20887739126699129    0.20427315692123618    0.19872066623417772    0.19242236658288314    
  0.18561764152849577    0.1785604320405205    0.1715160307551485    0.16474654476056805    0.1584688824906507    
  0.15280553361112215    0.147765090589903    0.14326859661902977    0.1392032564465101    0.1354708619698217    
  0.13201188863053998    0.12880801687661594    0.12587641163933372    0.12326595940032514    0.1210564592999276    
  0.1193536040289679    0.11827097224147845    0.11789858011530861    0.11827097224147846    0.1193536040289679    
  0.1210564592999276    0.12326595940032511    0.12587641163933372    0.12880801687661597    0.13201188863053998    
  0.1354708619698217    0.1392032564465101    0.14326859661902977    0.14776509058990303    0.15280553361112215    
  0.15846888249065066    0.16474654476056802    0.17151603075514849    0.17856043204052052    0.1856176415284958    
  0.19242236658288314    0.19872066623417775    0.20427315692123618    0.20887739126699129    0.21241546689768848    
  0.2148974174787989    0.21646365578212803    0.2173371140452453    0.21774818058787102    0.21786488697846257    
  0.1784838190090368    0.17859126949004464    0.1788608978427582    0.17915034618561043    0.17926938807712306    
  0.17903250033190632    0.17830350153698116    0.17701901354617725    0.1751903000919396    0.17289423040169238    
  0.17026403834153964    0.16747952356340692    0.16474654476056802    0.16225913384080962    0.16015265817637078    
  0.1584688771833689    0.15715132796181733    0.15607371968810296    0.15508699118366398    0.15406370498598962    
  0.15292443198523045    0.15164423392467452    0.1502486213891072    0.14880951143239973    0.1474425873154961    
  0.14629708812902606    0.1455285928983188    0.14525727672444635    0.1455285928983188    0.14629708812902606    
  0.1474425873154961    0.14880951143239973    0.1502486213891072    0.15164423392467447    0.15292443198523045    
  0.15406370498598962    0.155086991183664    0.156073719688103    0.15715132796181738    0.15846887718336894    
  0.16015265817637073    0.16225913384080956    0.16474654476056802    0.16747952356340692    0.17026403834153966    
  0.17289423040169238    0.1751903000919396    0.17701901354617722    0.17830350153698116    0.17903250033190637    
  0.17926938807712306    0.17915034618561043    0.1788608978427582    0.17859126949004464    0.1784838190090368    
  0.14525795392430457    0.1455292576969557    0.14629771665201774    0.1474431589080823    0.1488100108627214    
  0.1502490393193144    0.151644566097371    0.15292467929593462    0.15406387444152542    0.15508709541168864    
  0.15607377450616436    0.15715135008987827    0.15846888249065072    0.1601526581763708    0.16225913049993906    
  0.1647465280358855    0.1674794746015812    0.17026393525452016    0.1728940519960147    0.17519002749773627    
  0.17701863231676496    0.17830300402268942    0.1790318862446517    0.17926866378851594    0.17914952504734538    
  0.17886000105912156    0.17859032498177035    0.1784828582879529    0.17859032498177035    0.17886000105912156    
  0.17914952504734538    0.17926866378851594    0.17903188624465163    0.17830300402268942    0.17701863231676498    
  0.1751900274977363    0.17289405199601474    0.17026393525452013    0.1674794746015812    0.16474652803588555    
  0.16225913049993904    0.1601526581763708    0.15846888249065072    0.1571513500898783    0.15607377450616436    
  0.1550870954116886    0.15406387444152542    0.15292467929593462    0.151644566097371    0.15024903931931444    
  0.1488100108627214    0.1474431589080823    0.1462977166520177    0.1455292576969558    0.14525795392430457    
  0.11789904622324443    0.11827142882321572    0.11935403321034449    0.12105684648019173    0.12326629429117643    
  0.12587668788037945    0.1288082315185706    0.13201204294441948    0.13547096255580254    0.13920331429934274    
  0.14326862427665002    0.14776509975938895    0.1528055336111222    0.15846887718336897    0.16474652803588558    
  0.1715159848811835    0.1785603315857093    0.18561745943748573    0.19242207760820393    0.19872024807868763    
  0.204272592413763    0.20887667152039027    0.21241459262868723    0.21489639839732436    0.2164625105571121    
  0.2173358708535698    0.21774687568297857    0.2178635610973593    0.21774687568297862    0.2173358708535698    
  0.2164625105571121    0.2148963983973243    0.21241459262868723    0.20887667152039027    0.20427259241376303    
  0.19872024807868763    0.19242207760820396    0.18561745943748573    0.1785603315857093    0.1715159848811835    
  0.16474652803588555    0.15846887718336894    0.1528055336111222    0.14776509975938898    0.14326862427665005    
  0.13920331429934274    0.13547096255580252    0.13201204294441948    0.1288082315185706    0.12587668788037945    
  0.12326629429117643    0.12105684648019173    0.11935403321034448    0.11827142882321573    0.11789904622324443    
  0.09569673894417606    0.09612146936631343    0.09737527044275406    0.09940540010437462    0.1021466192986681    
  0.10554153681377128    0.10955378293044626    0.11417236695016444    0.11941047683465993    0.1253058600358439    
  0.13192727597208617    0.13937681244572164    0.1477650905899031    0.15715132796181733    0.1674794746015812    
  0.17856033158570928    0.19011405024549838    0.20182875513177745    0.21337797286002158    0.22439345293812282    
  0.23445168088221574    0.24313011456591513    0.2501219116715096    0.2553350456865822    0.25890608466882986    
  0.2611212483251726    0.2622941108552864    0.26265689882852417    0.2622941108552864    0.26112124832517264    
  0.25890608466882986    0.2553350456865822    0.2501219116715096    0.24313011456591507    0.2344516808822158    
  0.22439345293812288    0.21337797286002158    0.20182875513177742    0.19011405024549838    0.1785603315857093    
  0.16747947460158122    0.1571513279618173    0.1477650905899031    0.13937681244572164    0.13192727597208617    
  0.1253058600358439    0.11941047683465991    0.11417236695016444    0.10955378293044626    0.10554153681377128    
  0.10214661929866808    0.09940540010437465    0.09737527044275404    0.09612146936631343    0.09569673894417606    
  0.07788564598202484    0.0783312649998304    0.07966230675339736    0.08186356834003428    0.08491696005819574    
  0.08881161589276071    0.09355484947405218    0.09917800898623366    0.1057349267253001    0.11330161058867086    
  0.12198524358896533    0.13192726420123715    0.14326859661902983    0.15607371968810296    0.17026393525452013    
  0.18561745943748575    0.20182875513177742    0.2185523874392797    0.23537379528806487    0.2517395741975301    
  0.2669446232112281    0.28024246830924493    0.29104613386519734    0.2991084073705499    0.3045762598034322    
  0.307891807319009    0.30959401825222643    0.3101081404928599    0.30959401825222643    0.307891807319009    
  0.3045762598034322    0.2991084073705499    0.2910461338651974    0.28024246830924493    0.26694462321122814    
  0.2517395741975301    0.23537379528806487    0.21855238743927977    0.20182875513177742    0.18561745943748578    
  0.1702639352545201    0.15607371968810294    0.1432685966190298    0.13192726420123715    0.12198524358896538    
  0.11330161058867086    0.10573492672530004    0.09917800898623369    0.09355484947405218    0.08881161589276075    
  0.08491696005819577    0.08186356834003428    0.07966230675339736    0.07833126499983044    0.07788564598202484    
  0.06376271960030426    0.06421049872225806    0.06556026731860655    0.06782825319928976    0.07103616456041367    
  0.0752141290043493    0.08041099339580365    0.08670182237075087    0.09418759722671347    0.10299770697241707    
  0.11330159796025867    0.12530583012946805    0.1392032564465101    0.15508699118366398    0.17289405199601474    
  0.19242207760820387    0.2133779728600216    0.23537379528806476    0.25784293059074453    0.27994602948639324    
  0.30057502478713044    0.3185209487305313    0.3327818385918007    0.3428915974210102    0.3490990630747887    
  0.3522728127941697    0.353545594591849    0.3538504405804753    0.3535455945918491    0.35227281279416967    
  0.34909906307478866    0.3428915974210102    0.3327818385918007    0.31852094873053133    0.30057502478713044    
  0.27994602948639324    0.25784293059074453    0.23537379528806482    0.2133779728600216    0.1924220776082039    
  0.17289405199601474    0.15508699118366398    0.1392032564465101    0.12530583012946808    0.11330159796025872    
  0.10299770697241707    0.09418759722671342    0.0867018223707509    0.08041099339580365    0.07521412900434929    
  0.07103616456041367    0.06782825319928981    0.06556026731860655    0.06421049872225812    0.06376271960030426    
  0.052674141478118115    0.05311319670198418    0.054445376611258325    0.05670946732602924    0.059957716037500434    
  0.06425545711824959    0.06969108233167637    0.07638380099714001    0.08448537122218447    0.09418758443758983    
  0.10573489682079097    0.11941041997858591    0.13547086196982172    0.1540637049859896    0.1751900274977363    
  0.19872024807868766    0.22439345293812288    0.2517395741975301    0.2799460294863932    0.3077491802404669    
  0.333442424746389    0.3551000960265978    0.37107712105710616    0.3806617563618046    0.3845211382532116    
  0.3845743453448977    0.38326295955395306    0.38257339493930065    0.3832629595539531    0.3845743453448977    
  0.3845211382532116    0.3806617563618046    0.3710771210571062    0.3551000960265978    0.333442424746389    
  0.3077491802404669    0.2799460294863932    0.2517395741975301    0.22439345293812288    0.19872024807868763    
  0.1751900274977363    0.1540637049859896    0.13547086196982172    0.11941041997858598    0.10573489682079101    
  0.09418758443758983    0.08448537122218433    0.07638380099714001    0.06969108233167633    0.06425545711824963    
  0.059957716037500434    0.05670946732602919    0.0544453766112583    0.05311319670198422    0.052674141478118115    
  0.04402415171096205    0.04444912327583932    0.04574391774055336    0.04796113966662922    0.051174856770247926    
  0.05548014818010353    0.06100219152172041    0.06790263736002977    0.07638378867080005    0.08670179364439809    
  0.09917795544462564    0.11417227416685892    0.13201188863054003    0.15292443198523048    0.17701863231676507    
  0.20427259241376308    0.23445168088221585    0.26694462321122814    0.30057502478713044    0.3334424247463891    
  0.36288875872028237    0.3858360772891329    0.3997237478166973    0.40379638437167703    0.39990309277821373    
  0.39206406683400075    0.3849467864716015    0.3821333625231889    0.3849467864716015    0.39206406683400075    
  0.39990309277821373    0.403796384371677    0.3997237478166973    0.3858360772891329    0.36288875872028237    
  0.3334424247463891    0.30057502478713044    0.26694462321122814    0.23445168088221585    0.2042725924137631    
  0.17701863231676507    0.15292443198523048    0.13201188863054    0.11417227416685893    0.09917795544462567    
  0.08670179364439812    0.0763837886708    0.06790263736002983    0.06100219152172041    0.05548014818010356    
  0.051174856770247946    0.047961139666629266    0.04574391774055331    0.04444912327583932    0.04402415171096205    
  0.03731972466640463    0.03772933137593577    0.03897984985389238    0.04113049565578489    0.04426957861243523    
  0.04851601259876652    0.05402696847012801    0.061002180439271275    0.06969105646503013    0.0804109454302348    
  0.09355476742512256    0.1095536482690437    0.12880801687661594    0.15164423392467455    0.17830300402268948    
  0.20887667152039027    0.24313011456591516    0.28024246830924493    0.3185209487305313    0.3551000960265978    
  0.38583607728913294    0.40597437229577826    0.41198728098004755    0.40382839291977624    0.3858395417647288    
  0.36529237641473156    0.34954993627255093    0.34371155696358396    0.34954993627255093    0.36529237641473156    
  0.3858395417647288    0.40382839291977624    0.4119872809800476    0.4059743722957782    0.38583607728913294    
  0.3551000960265978    0.31852094873053133    0.28024246830924493    0.24313011456591516    0.20887667152039027    
  0.17830300402268948    0.15164423392467452    0.12880801687661594    0.1095536482690437    0.09355476742512253    
  0.0804109454302348    0.06969105646503009    0.061002180439271365    0.05402696847012798    0.04851601259876654    
  0.04426957861243523    0.041130495655784916    0.03897984985389242    0.037729331375935794    0.03731972466640463    
  0.03218548115826999    0.032580628569604246    0.033787628128758615    0.03586745507773301    0.03891674956312452    
  0.04307205578074474    0.048516002874354404    0.055480126159490245    0.0642554169684509    0.07521406062488765    
  0.08881150401027815    0.10554135889663703    0.12587641163933377    0.1502486213891072    0.17903188624465163    
  0.21241459262868723    0.2501219116715096    0.2910461338651973    0.3327818385918007    0.37107712105710616    
  0.3997237478166972    0.41198728098004755    0.40393017799680403    0.3776862234920993    0.34160691777833696    
  0.3066767433531369    0.2821476625576151    0.2734163890927434    0.2821476625576151    0.3066767433531369    