#     DFTpy    
  CRYSTAL 
    
  PRIMVEC    
  5.018068965517241    0.0    0.0    
  0.0    5.018068965517241    0.0    
  0.0    0.0    5.018068965517241    
  PRIMCOORD    
  8    1    
  Si    0.0    0.0    0.0    
  Si    1.2545172413793102    1.2545172413793102    1.2545172413793102    
  Si    0.0    2.5090344827586204    2.5090344827586204    
  Si    1.2545172413793102    3.763551724137931    3.763551724137931    
  Si    2.5090344827586204    0.0    2.5090344827586204    
  Si    3.763551724137931    1.2545172413793102    3.763551724137931    
  Si    2.5090344827586204    2.5090344827586204    0.0    
  Si    3.763551724137931    3.763551724137931    1.2545172413793102    
  BEGIN_BLOCK_DATAGRID_3D    
  3d_datagrid_density    
  BEGIN_DATAGRID_3D#0    
  49    49    49    
  0.0    0.0    0.0    
  5.018068984234734    0.0    0.0    
  0.0    5.018068984234734    0.0    
  0.0    0.0    5.018068984234734    
  0.04350199144353727    0.05144425332838226    0.07851191511882266    0.131536129940859    0.21187363859832695    
  0.3053357960929095    0.38429457945973855    0.42495271838991805    0.42232670211003454    0.38819709829754834    
  0.33880068726658064    0.28617751644976525    0.23684234450375719    0.19361562445407954    0.15726094281086353    
  0.1274644709554741    0.10349810598414401    0.08458137104045144    0.06995638192493722    0.058884373806663046    
  0.0506960359274695    0.044849549836067516    0.0409430911443439    0.03870301124661298    0.0379729865358883    
  0.03870301124661296    0.04094309114434391    0.04484954983606763    0.050696035927469456    0.058884373806662976    
  0.06995638192493725    0.0845813710404515    0.10349810598414406    0.1274644709554741    0.15726094281086347    
  0.1936156244540795    0.23684234450375719    0.28617751644976525    0.3388006872665806    0.38819709829754834    
  0.42232670211003454    0.4249527183899181    0.38429457945973855    0.30533579609290956    0.2118736385983269    
  0.13153612994085898    0.07851191511882266    0.05144425332838221    0.04350199144353727    0.05144425332838224    
  0.059991717179305244    0.08862730746340956    0.14331739008117286    0.22407079370702984    0.3158214788503515    
  0.39147187625534063    0.42874033566504427    0.42380738602838736    0.38861595760081186    0.3389608760000883    
  0.28642314584508105    0.2372603567178011    0.19419002422853224    0.15794579264072678    0.12821628928342732    
  0.10428732687052998    0.08538903031947791    0.07076708152571831    0.059684682618464956    0.05147742660455807    
  0.0456103240827569    0.04168703558842154    0.039436538374422514    0.038703056125292366    0.03943653837442246    
  0.04168703558842157    0.045610324082756976    0.05147742660455802    0.05968468261846493    0.07076708152571831    
  0.08538903031947796    0.10428732687053001    0.1282162892834273    0.1579457926407267    0.1941900242285322    
  0.2372603567178011    0.2864231458450811    0.33896087600008823    0.3886159576008119    0.4238073860283874    
  0.42874033566504427    0.39147187625534063    0.31582147885035156    0.2240707937070298    0.14331739008117292    
  0.08862730746340956    0.05999171717930522    0.05144425332838224    0.07851191511882268    0.08862730746340963    
  0.12112895080435622    0.1793523940402476    0.259688213078091    0.34519483365852727    0.410769691648121    
  0.43839479702662804    0.4271905993235156    0.3892711474455127    0.3390882599772303    0.2869363820413735    
  0.23836898588859728    0.1958219154270849    0.1599478747256048    0.1304473375193222    0.1066509647410336    
  0.08782305522677102    0.07322212189300081    0.06211864658218689    0.05386290374284144    0.04793953471457904    
  0.04396836017253819    0.041687165096186175    0.040943265374975606    0.04168716509618614    0.04396836017253817    
  0.047939534714579075    0.053862903742841424    0.06211864658218677    0.07322212189300081    0.08782305522677109    
  0.10665096474103364    0.1304473375193222    0.15994787472560476    0.1958219154270849    0.23836898588859728    
  0.28693638204137345    0.33908825997723024    0.3892711474455128    0.4271905993235156    0.43839479702662804    
  0.41076969164812105    0.34519483365852727    0.2596882130780909    0.17935239404024766    0.12112895080435622    
  0.08862730746340962    0.07851191511882268    0.131536129940859    0.14331739008117297    0.17935239404024766    
  0.2389664814767871    0.3140993257384742    0.3867428571783714    0.43584566368972844    0.4493798930760725    
  0.4297790309147009    0.3886692354722316    0.3383155270084429    0.2871665644330838    0.23980498807439024    
  0.19827847690370015    0.16313229089881737    0.1340984765190478    0.11058810474121883    0.09192639936273185    
  0.07739841961761851    0.06629121731489843    0.05798031303609534    0.0519811737447798    0.047939733302907024    
  0.04561065066029073    0.044849920380195224    0.045610650660290755    0.04793973330290701    0.05198117374477984    
  0.05798031303609532    0.06629121731489837    0.07739841961761851    0.09192639936273185    0.11058810474121887    
  0.1340984765190478    0.16313229089881734    0.1982784769037001    0.23980498807439024    0.28716656443308386    
  0.33831552700844286    0.38866923547223164    0.42977903091470093    0.4493798930760724    0.43584566368972844    
  0.3867428571783714    0.31409932573847416    0.238966481476787    0.17935239404024766    0.14331739008117286    
  0.131536129940859    0.21187363859832695    0.22407079370702992    0.25968821307809103    0.31409932573847427    
  0.3761535406585405    0.42914409918555463    0.4577760233306009    0.45599521438715274    0.4284279214782207    
  0.3851462140603846    0.3356915039411042    0.2865025605002725    0.24115140936207663    0.20128187529990485    
  0.16733783894596868    0.13911134802749284    0.11612654026735293    0.09779350365624588    0.08344106398100393    
  0.07238822609774348    0.06404916892004585    0.05798055490366534    0.05386333909786331    0.05147798487781245    
  0.05069663616340252    0.05147798487781245    0.05386333909786331    0.05798055490366546    0.06404916892004583    
  0.07238822609774336    0.08344106398100397    0.09779350365624591    0.11612654026735293    0.1391113480274928    
  0.16733783894596863    0.20128187529990482    0.24115140936207663    0.2865025605002724    0.3356915039411042    
  0.3851462140603846    0.4284279214782207    0.4559952143871526    0.4577760233306009    0.42914409918555463    
  0.3761535406585405    0.31409932573847416    0.25968821307809103    0.22407079370702992    0.21187363859832695    
  0.30533579609290945    0.3158214788503515    0.34519483365852727    0.38674285717837137    0.42914409918555463    
  0.45937071453993444    0.4680914840899795    0.45356405132464933    0.4208126353469329    0.3775378629446518    
  0.33055008680831277    0.28449635860080913    0.2420807835911321    0.20460236637616283    0.17243823113846662    
  0.14546875833378084    0.12334916123326096    0.10558784927331175    0.09157584248468613    0.080685980359207    
  0.0723884764586963    0.06629169796281624    0.06211930619566643    0.05968545412234314    0.058885183257438266    
  0.05968545412234309    0.06211930619566643    0.06629169796281634    0.07238847645869624    0.08068598035920684    
  0.09157584248468613    0.10558784927331179    0.12334916123326099    0.14546875833378087    0.1724382311384666    
  0.2046023663761628    0.2420807835911321    0.2844963586008091    0.33055008680831277    0.3775378629446518    
  0.4208126353469329    0.45356405132464933    0.4680914840899795    0.45937071453993444    0.4291440991855545    
  0.3867428571783714    0.34519483365852727    0.3158214788503515    0.30533579609290945    0.3842945794597387    
  0.39147187625534074    0.410769691648121    0.43584566368972844    0.457776023330601    0.4680914840899795    
  0.4620682651879059    0.4400588150953249    0.40611775867952066    0.36545912859107077    0.3226370946643342    
  0.280935786281448    0.24240879052682943    0.2081046683836373    0.17838174708407023    0.15322522854522647    
  0.13241673761875491    0.11556220730081986    0.10213147618879638    0.09157605979716137    0.08344151012059867    
  0.07739906556022587    0.07322291793239122    0.07076796962328628    0.06995730100291316    0.07076796962328621    
  0.07322291793239119    0.07739906556022591    0.08344151012059862    0.09157605979716134    0.10213147618879638    
  0.11556220730081986    0.13241673761875497    0.15322522854522647    0.1783817470840702    0.20810466838363725    
  0.24240879052682943    0.28093578628144794    0.3226370946643342    0.3654591285910708    0.40611775867952066    
  0.4400588150953249    0.4620682651879059    0.4680914840899795    0.4577760233306009    0.43584566368972844    
  0.410769691648121    0.39147187625534063    0.3842945794597387    0.4249527183899181    0.42874033566504427    
  0.4383947970266281    0.4493798930760725    0.45599521438715274    0.4535640513246494    0.4400588150953249    
  0.41630232913424836    0.38494800552644015    0.34921126733389346    0.3120508735442864    0.27580858731783675    
  0.2420794836183563    0.21175194232589414    0.1852053774815327    0.16252329183245703    0.1435847453598732    
  0.12807817186019874    0.11556234697762056    0.10558817019862533    0.09779399883502089    0.09192703640228762    
  0.08782379321640638    0.08538982815385429    0.08458218872292095    0.0853898281538543    0.08782379321640638    
  0.09192703640228768    0.09779399883502081    0.1055881701986253    0.11556234697762055    0.1280781718601988    
  0.1435847453598732    0.16252329183245703    0.1852053774815327    0.2117519423258941    0.2420794836183563    
  0.2758085873178367    0.3120508735442864    0.34921126733389346    0.38494800552644015    0.41630232913424825    
  0.4400588150953249    0.4535640513246495    0.45599521438715274    0.4493798930760724    0.4383947970266281    
  0.42874033566504427    0.4249527183899181    0.42232670211003454    0.4238073860283874    0.4271905993235156    
  0.4297790309147009    0.4284279214782206    0.42081263534693303    0.40611775867952077    0.38494800552644015    
  0.35880305580131355    0.3295661420117947    0.2991559731953506    0.26926241689716823    0.24114890520153034    
  0.21560381936974804    0.19303653199453089    0.17359042179550233    0.15719179690974938    0.14358476623191802    
  0.1324168418184634    0.12334935765453311    0.1161268100759812    0.11058842130714554    0.10665130619067796    
  0.1042876796042592    0.10349846192931823    0.10428767960425923    0.10665130619067796    0.11058842130714563    
  0.11612681007598118    0.12334935765453307    0.1324168418184634    0.14358476623191807    0.15719179690974938    
  0.1735904217955023    0.19303653199453089    0.21560381936974798    0.2411489052015303    0.26926241689716823    
  0.2991559731953506    0.32956614201179474    0.3588030558013136    0.38494800552644015    0.40611775867952077    
  0.4208126353469331    0.4284279214782206    0.4297790309147009    0.4271905993235156    0.4238073860283874    
  0.42232670211003454    0.38819709829754834    0.38861595760081186    0.3892711474455128    0.3886692354722317    
  0.3851462140603846    0.37753786294465186    0.3654591285910708    0.3492112673338934    0.3295661420117948    
  0.3075983757029143    0.28454206519916814    0.26160800270584156    0.2398014554847094    0.2198259692785317    
  0.2020813126920298    0.1866990546038299    0.17359029503352666    0.16252310382296178    0.1532249891470766    
  0.1454684513259554    0.13911095380749328    0.13409798734777065    0.13044676407008318    0.12821565871145993    
  0.12746382031846004    0.1282156587114599    0.13044676407008318    0.13409798734777076    0.13911095380749322    
  0.14546845132595537    0.1532249891470766    0.16252310382296176    0.17359029503352666    0.18669905460382988    
  0.2020813126920298    0.2198259692785317    0.2398014554847094    0.26160800270584156    0.28454206519916814    
  0.3075983757029143    0.3295661420117948    0.34921126733389335    0.3654591285910708    0.37753786294465186    
  0.3851462140603846    0.3886692354722316    0.3892711474455128    0.38861595760081186    0.38819709829754834    
  0.33880068726658064    0.33896087600008823    0.33908825997723036    0.3383155270084429    0.3356915039411042    
  0.33055008680831277    0.32263709466433416    0.31205087354428634    0.29915597319535053    0.2845420651991681    
  0.26898124838845233    0.25332661793125    0.23836465158874012    0.2246791266069053    0.21257455821497298    
  0.20208103176253345    0.19303601321651562    0.18520460837716168    0.17838069302963117    0.1724368628861909    
  0.16733615135881819    0.16313031176030235    0.15994566372957764    0.15794343343802977    0.15725853276930848    
  0.15794343343802977    0.15994566372957766    0.1631303117603024    0.16733615135881816    0.17243686288619087    
  0.17838069302963114    0.18520460837716174    0.19303601321651562    0.20208103176253345    0.21257455821497298    
  0.2246791266069053    0.23836465158874012    0.25332661793124994    0.26898124838845233    0.28454206519916814    
  0.2991559731953506    0.3120508735442863    0.32263709466433416    0.3305500868083128    0.33569150394110414    
  0.33831552700844286    0.33908825997723036    0.33896087600008823    0.33880068726658064    0.28617751644976525    
  0.28642314584508116    0.28693638204137345    0.28716656443308397    0.2865025605002725    0.2844963586008092    
  0.280935786281448    0.2758085873178368    0.26926241689716823    0.26160800270584156    0.25332661793125    
  0.24501615984966554    0.23725546260029576    0.23043949768848496    0.22467871553345498    0.21982513833456443    
  0.21560250462667374    0.21175006131900198    0.20810215392615328    0.20459919173929592    0.201278067904901    
  0.19827411928212604    0.19581713543670334    0.19418498013776847    0.19361049069796646    0.19418498013776847    
  0.19581713543670334    0.19827411928212607    0.201278067904901    0.20459919173929586    0.20810215392615328    
  0.21175006131900206    0.21560250462667374    0.21982513833456438    0.22467871553345498    0.23043949768848496    
  0.23725546260029576    0.24501615984966554    0.25332661793125    0.26160800270584156    0.2692624168971683    
  0.27580858731783675    0.280935786281448    0.28449635860080924    0.2865025605002725    0.28716656443308386    
  0.2869363820413735    0.2864231458450811    0.28617751644976525    0.23684234450375719    0.23726035671780116    
  0.23836898588859728    0.23980498807439019    0.24115140936207652    0.24208078359113205    0.24240879052682943    
  0.2420794836183563    0.2411489052015302    0.23980145548470935    0.23836465158874012    0.23725546260029567    
  0.23683711474347646    0.2372549765525382    0.23836359490655606    0.23979968378558186    0.2411462541097242    
  0.24207581076637957    0.2424040103497539    0.24207488987065318    0.24114448270773506    0.23979718770102715    
  0.23836052946718986    0.23725149656339864    0.2368333484443518    0.23725149656339864    0.23836052946718986    
  0.2397971877010272    0.24114448270773506    0.24207488987065312    0.2424040103497539    0.24207581076637957    
  0.2411462541097242    0.2397996837855818    0.23836359490655606    0.2372549765525382    0.23683711474347646    
  0.23725546260029567    0.23836465158874012    0.2398014554847094    0.2411489052015302    0.24207948361835624    
  0.24240879052682943    0.2420807835911322    0.24115140936207652    0.23980498807439013    0.23836898588859728    
  0.23726035671780116    0.23684234450375719    0.19361562445407957    0.1941900242285322    0.19582191542708488    
  0.1982784769037001    0.20128187529990488    0.20460236637616272    0.2081046683836373    0.2117519423258941    
  0.21560381936974807    0.21982596927853162    0.2246791266069053    0.23043949768848498    0.2372549765525382    
  0.24501502054647445    0.2533245838428337    0.2616047982912594    0.2692577839244186    0.2758023342894229    
  0.2809278258701228    0.28448672716316925    0.28649141729779426    0.2871541713835684    0.2869230696486417    
  0.28640927710887293    0.2861634622668071    0.28640927710887293    0.2869230696486417    0.28715417138356847    
  0.28649141729779426    0.2844867271631692    0.2809278258701228    0.2758023342894229    0.2692577839244186    
  0.2616047982912594    0.2533245838428337    0.2450150205464744    0.2372549765525382    0.23043949768848498    
  0.2246791266069053    0.21982596927853165    0.21560381936974807    0.211751942325894    0.2081046683836373    
  0.20460236637616278    0.2012818752999049    0.19827847690370012    0.19582191542708488    0.1941900242285322    
  0.19361562445407957    0.15726094281086347    0.15794579264072672    0.15994787472560462    0.1631322908988172    
  0.16733783894596865    0.17243823113846649    0.17838174708407023    0.18520537748153268    0.19303653199453077    
  0.20208131269202964    0.21257455821497295    0.22467871553345486    0.23836359490655604    0.25332458384283363    
  0.26897784183712353    0.28453688313904874    0.2991486699840442    0.31204122192338246    0.32262502829005196    
  0.33053571583059654    0.3356751017919295    0.3382974911349522    0.3390690555203065    0.33894098163618164    
  0.33878056638286536    0.33894098163618164    0.3390690555203065    0.3382974911349523    0.33567510179192955    
  0.33053571583059654    0.32262502829005196    0.31204122192338246    0.2991486699840442    0.28453688313904874    
  0.26897784183712353    0.2533245838428337    0.23836359490655604    0.22467871553345492    0.21257455821497295    
  0.20208131269202972    0.19303653199453075    0.18520537748153265    0.1783817470840702    0.1724382311384665    
  0.16733783894596868    0.16313229089881717    0.15994787472560462    0.15794579264072675    0.15726094281086347    
  0.12746447095547425    0.12821628928342746    0.13044733751932222    0.13409847651904777    0.13911134802749295    
  0.1454687583337808    0.1532252285452266    0.16252329183245706    0.17359042179550227    0.1866990546038299    
  0.20208103176253364    0.2198251383345645    0.23979968378558192    0.2616047982912594    0.28453688313904885    
  0.30759068987803145    0.3295555295834388    0.3491974868871489    0.36544217125587747    0.37751796325015224    
  0.38512381622808034    0.3886449187112755    0.3892455283576707    0.38858960743692195    0.38817051576876926    
  0.38858960743692195    0.3892455283576707    0.3886449187112755    0.3851238162280804    0.3775179632501522    
  0.36544217125587747    0.349197486887149    0.3295555295834388    0.3075906898780314    0.28453688313904885    
  0.26160479829125943    0.23979968378558192    0.21982513833456443    0.20208103176253364    0.18669905460382993    
  0.17359042179550224    0.16252329183245703    0.15322522854522658    0.14546875833378092    0.13911134802749292    
  0.13409847651904774    0.13044733751932222    0.12821628928342735    0.12746447095547425    0.10349810598414413    
  0.10428732687053005    0.1066509647410336    0.11058810474121897    0.11612654026735304    0.12334916123326099    
  0.1324167376187552    0.1435847453598733    0.15719179690974938    0.1735902950335267    0.1930360132165157    
  0.21560250462667374    0.2411462541097243    0.26925778392441874    0.2991486699840442    0.3295555295834388    
  0.35878865480365923    0.3849295994177369    0.406095460677611    0.42078689430003335    0.42839944956914777    
  0.42974865706119764    0.42715909322571993    0.42377533259389366    0.4222944932608355    0.42377533259389366    
  0.42715909322571993    0.42974865706119775    0.42839944956914777    0.4207868943000333    0.406095460677611    
  0.384929599417737    0.35878865480365923    0.32955552958343876    0.2991486699840442    0.26925778392441874    
  0.24114625410972423    0.2156025046266738    0.19303601321651567    0.17359029503352671    0.15719179690974938    
  0.14358474535987323    0.1324167376187552    0.12334916123326102    0.11612654026735303    0.11058810474121893    
  0.1066509647410336    0.10428732687053008    0.10349810598414413    0.08458137104045156    0.08538903031947806    
  0.08782305522677099    0.09192639936273199    0.09779350365624595    0.10558784927331186    0.11556220730081995    
  0.1280781718601988    0.14358476623191807    0.16252310382296178    0.18520460837716177    0.21175006131900215    
  0.2420758107663796    0.2758023342894228    0.31204122192338246    0.34919748688714897    0.384929599417737    
  0.41627917598379627    0.44003126499651773    0.4535329206581106    0.4559616321681972    0.4493450152832282    
  0.43835950275408797    0.42870505862133274    0.42491749868255985    0.42870505862133274    0.43835950275408786    
  0.44934501528322823    0.4559616321681972    0.4535329206581106    0.44003126499651773    0.41627917598379627    
  0.384929599417737    0.3491974868871489    0.3120412219233825    0.2758023342894228    0.2420758107663796    
  0.21175006131900215    0.18520460837716177    0.1625231038229618    0.14358476623191802    0.12807817186019874    
  0.11556220730081998    0.10558784927331193    0.097793503656246    0.09192639936273195    0.08782305522677102    
  0.0853890303194781    0.08458137104045156    0.06995638192493725    0.07076708152571824    0.07322212189300076    
  0.07739841961761844    0.08344106398100393    0.09157584248468606    0.10213147618879638    0.11556234697762059    
  0.13241684181846333    0.15322498914707655    0.17838069302963125    0.2081021539261533    0.2424040103497539    
  0.2809278258701227    0.3226250282900521    0.36544217125587747    0.40609546067761093    0.4400312649965176    
  0.4620362277535662    0.4680563539398393    0.4577395063298961    0.43580926379099966    0.4107342571347921    
  0.391437444032461    0.38426055831131123    0.39143744403246106    0.41073425713479217    0.43580926379099966    
  0.4577395063298961    0.4680563539398393    0.4620362277535662    0.44003126499651773    0.40609546067761093    
  0.36544217125587736    0.3226250282900521    0.28092782587012277    0.2424040103497539    0.2081021539261533    
  0.17838069302963125    0.15322498914707655    0.13241684181846333    0.11556234697762055    0.10213147618879638    
  0.09157584248468609    0.08344106398100397    0.0773984196176184    0.07322212189300074    0.07076708152571828    
  0.06995638192493725    0.058884373806663094    0.059684682618464956    0.0621186465821868    0.06629121731489837    
  0.07238822609774352    0.08068598035920699    0.09157605979716127    0.10558817019862521    0.12334935765453303    
  0.14546845132595537    0.17243686288619098    0.20459919173929578    0.24207488987065318    0.28448672716316914    
  0.33053571583059654    0.377517963250152    0.42078689430003324    0.45353292065811057    0.4680563539398392    
  0.4593337519107206    0.42910764553393854    0.3867086266215538    0.345163381089201    0.31579220150223    
  0.305307328353948    0.31579220150223003    0.345163381089201    0.3867086266215539    0.42910764553393854    
  0.4593337519107205    0.4680563539398392    0.4535329206581106    0.4207868943000332    0.377517963250152    
  0.33053571583059654    0.2844867271631692    0.24207488987065318    0.20459919173929583    0.17243686288619098    
  0.14546845132595543    0.12334935765453298    0.10558817019862518    0.09157605979716127    0.080685980359207    
  0.07238822609774358    0.0662912173148983    0.0621186465821868    0.059684682618464956    0.058884373806663094    
  0.05069603592746948    0.05147742660455804    0.05386290374284146    0.05798031303609534    0.06404916892004595    
  0.0723884764586963    0.08344151012059871    0.09779399883502089    0.11612681007598129    0.13911095380749328    
  0.16733615135881816    0.20127806790490105    0.24114448270773506    0.28649141729779426    0.33567510179192944    
  0.3851238162280803    0.42839944956914777    0.4559616321681971    0.4577395063298961    0.42910764553393865    
  0.3761199774515005    0.3140702507575335    0.2596635765259065    0.22404925002654683    0.21185318420143992    
  0.22404925002654685    0.2596635765259065    0.3140702507575335    0.3761199774515006    0.42910764553393854    
  0.4577395063298961    0.4559616321681971    0.4283994495691477    0.3851238162280803    0.3356751017919295    
  0.28649141729779426    0.24114448270773506    0.20127806790490108    0.16733615135881819    0.13911095380749333    
  0.11612681007598127    0.09779399883502088    0.08344151012059867    0.07238847645869634    0.06404916892004602    
  0.05798031303609524    0.05386290374284148    0.05147742660455807    0.05069603592746948    0.04484954983606768    
  0.04561032408275693    0.04793953471457911    0.05198117374477992    0.05798055490366539    0.06629169796281617    
  0.0773990655602259    0.09192703640228758    0.11058842130714559    0.13409798734777068    0.16313031176030232    
  0.19827411928212604    0.2397971877010272    0.28715417138356847    0.33829749113495217    0.38864491871127554    
  0.42974865706119764    0.4493450152832282    0.43580926379099966    0.3867086266215539    0.3140702507575334    
  0.23894366812165288    0.17933499431742855    0.1433034270125239    0.1315233160584988    0.14330342701252394    
  0.17933499431742853    0.23894366812165288    0.3140702507575335    0.3867086266215538    0.43580926379099966    
  0.4493450152832282    0.42974865706119764    0.3886449187112755    0.33829749113495217    0.28715417138356847    
  0.23979718770102715    0.19827411928212607    0.16313031176030235    0.13409798734777068    0.1105884213071455    
  0.09192703640228754    0.0773990655602259    0.0662916979628163    0.05798055490366548    0.05198117374477984    
  0.04793953471457911    0.04561032408275694    0.04484954983606768    0.04094309114434395    0.0416870355884215    
  0.043968360172538176    0.047939733302907024    0.053863339097863464    0.062119306195666406    0.0732229179323913    
  0.08782379321640643    0.10665130619067804    0.13044676407008307    0.15994566372957766    0.1958171354367034    
  0.23836052946718986    0.2869230696486417    0.33906905552030653    0.3892455283576706    0.4271590932257199    
  0.43835950275408786    0.41073425713479217    0.34516338108920125    0.2596635765259065    0.17933499431742855    
  0.12111718773969843    0.0886188227212958    0.07850446877936015    0.08861882272129587    0.12111718773969843    
  0.17933499431742858    0.2596635765259065    0.34516338108920114    0.41073425713479217    0.43835950275408786    
  0.4271590932257199    0.3892455283576706    0.33906905552030653    0.2869230696486417    0.23836052946718986    
  0.19581713543670337    0.1599456637295777    0.13044676407008307    0.10665130619067796    0.08782379321640638    
  0.0732229179323913    0.062119306195666496    0.05386333909786352    0.04793973330290693    0.04396836017253817    
  0.04168703558842154    0.04094309114434395    0.038703011246612996    0.03943653837442249    0.0416871650961862    
  0.0456106506602907    0.05147798487781252    0.05968545412234307    0.07076796962328627    0.08538982815385437    
  0.1042876796042592    0.1282156587114598    0.15794343343802977    0.1941849801377685    0.23725149656339872    
  0.28640927710887293    0.3389409816361817    0.38858960743692195    0.42377533259389355    0.42870505862133285    
  0.3914374440324611    0.31579220150223014    0.22404925002654677    0.14330342701252405    0.08861882272129584    
  0.0599862004658748    0.051439632942474826    0.05998620046587484    0.08861882272129586    0.14330342701252408    
  0.22404925002654683    0.3157922015022301    0.3914374440324611    0.42870505862133285    0.42377533259389355    
  0.38858960743692195    0.3389409816361817    0.286409277108873    0.23725149656339872    0.19418498013776853    
  0.1579434334380298    0.12821565871145985    0.10428767960425916    0.08538982815385433    0.07076796962328624    
  0.059685454122343114    0.05147798487781255    0.0456106506602906    0.04168716509618619    0.039436538374422514    
  0.038703011246612996    0.03797298653588832    0.038703056125292276    0.04094326537497564    0.04484992038019527    
  0.05069663616340259    0.05888518325743817    0.06995730100291311    0.08458218872292088    0.10349846192931822    
  0.12746382031845996    0.15725853276930848    0.19361049069796635    0.2368333484443518    0.28616346226680706    
  0.3387805663828653    0.38817051576876926    0.4222944932608353    0.42491749868255985    0.3842605583113111    
  0.30530732835394814    0.21185318420143986    0.1315233160584987    0.07850446877936014    0.051439632942474715    
  0.04349820737461001    0.051439632942474785    0.07850446877936014    0.13152331605849873    0.21185318420143998    
  0.305307328353948    0.38426055831131106    0.42491749868255985    0.4222944932608353    0.3881705157687692    
  0.33878056638286536    0.2861634622668071    0.2368333484443518    0.19361049069796635    0.15725853276930854    
  0.12746382031845996    0.10349846192931819    0.08458218872292078    0.06995730100291311    0.05888518325743829    
  0.05069663616340263    0.04484992038019519    0.04094326537497564    0.0387030561252923    0.03797298653588832    
  0.03870301124661301    0.03943653837442246    0.041687165096186155    0.04561065066029069    0.05147798487781245    
  0.05968545412234309    0.07076796962328628    0.08538982815385437    0.10428767960425923    0.1282156587114598    
  0.1579434334380298    0.19418498013776847    0.23725149656339872    0.286409277108873    0.33894098163618164    
  0.38858960743692195    0.42377533259389366    0.42870505862133274    0.3914374440324611    0.31579220150223003    