#     DFTpy    
  CRYSTAL 
    
  PRIMVEC    
  5.57979310344828    0.0    0.0    
  0.0    5.57979310344828    0.0    
  0.0    0.0    5.57979310344828    
  PRIMCOORD    
  8    1    
  Si    0.0    0.0    0.0    
  Si    1.39494827586207    1.39494827586207    1.39494827586207    
  Si    0.0    2.78989655172414    2.78989655172414    
  Si    1.39494827586207    4.184844827586211    4.184844827586211    
  Si    2.78989655172414    0.0    2.78989655172414    
  Si    4.184844827586211    1.39494827586207    4.184844827586211    
  Si    2.78989655172414    2.78989655172414    0.0    
  Si    4.184844827586211    4.184844827586211    1.39494827586207    
  BEGIN_BLOCK_DATAGRID_3D    
  3d_datagrid_density    
  BEGIN_DATAGRID_3D#0    
  55    55    55    
  0.0    0.0    0.0    
  5.579793124261015    0.0    0.0    
  0.0    5.579793124261015    0.0    
  0.0    0.0    5.579793124261015    
  0.04607746025728711    0.05355777436587252    0.07867136062326659    0.12681277338306057    0.19818047909481207    
  0.2794538148503653    0.346241882771193    0.3782449392946626    0.371936682210188    0.33839953267140194    
  0.2923796050016921    0.24462953216723518    0.2007608188130544    0.16297368502150475    0.1316314363139185    
  0.10618534053660116    0.08577184674163046    0.06954789332449644    0.056769984010805206    0.046775887822828835    
  0.038998684690178274    0.0329917175148059    0.028413918909641518    0.024996698311178345    0.022530717355960184    
  0.02086621905751861    0.019905572817382103    0.01959182232166798    0.019905572817382196    0.02086621905751847    
  0.022530717355960163    0.024996698311178393    0.028413918909641518    0.032991717514805834    0.038998684690178254    
  0.046775887822828835    0.05676998401080518    0.06954789332449647    0.08577184674163045    0.10618534053660111    
  0.13163143631391847    0.1629736850215047    0.20076081881305433    0.24462953216723513    0.2923796050016921    
  0.33839953267140194    0.37193668221018805    0.3782449392946626    0.346241882771193    0.2794538148503653    
  0.19818047909481218    0.1268127733830606    0.07867136062326656    0.05355777436587252    0.04607746025728711    
  0.053557774365872494    0.06153159387086618    0.08788753416733854    0.13723174094819757    0.2086065843920281    
  0.2880188089585997    0.3516440747940536    0.3805519647154685    0.3722188659866541    0.3378305455673556    
  0.2917082527205557    0.24417138123116996    0.20058233415081117    0.1630357395026417    0.13186216716474625    
  0.10651647167926187    0.08615460563455513    0.06995280713314496    0.057179514216681784    0.0471790114556326    
  0.03938910540418602    0.033366918116984674    0.028773726534268906    0.025342105453429832    0.022863474630943476    
  0.021188886516876997    0.02022162842916528    0.019905560518588834    0.020221628429165375    0.021188886516876854    
  0.022863474630943383    0.025342105453429853    0.028773726534268882    0.033366918116984626    0.03938910540418595    
  0.0471790114556326    0.057179514216681805    0.069952807133145    0.0861546056345551    0.10651647167926184    
  0.13186216716474622    0.16303573950264166    0.20058233415081111    0.24417138123116985    0.2917082527205557    
  0.3378305455673556    0.3722188659866541    0.3805519647154684    0.3516440747940536    0.2880188089585996    
  0.20860658439202812    0.13723174094819757    0.0878875341673385    0.06153159387086618    0.053557774365872494    
  0.07867136062326657    0.08788753416733854    0.11719536539364023    0.16885655789617401    0.23885697285879684    
  0.3118331538457702    0.3659606417217818    0.3861283153901025    0.3723292267024313    0.33579163789165795    
  0.28955766593524757    0.2427357448105835    0.20001023644138874    0.16319263836943243    0.13252939900747998    
  0.10749131602677825    0.087292979803334    0.07116645953039538    0.05841427559520441    0.04839971812594014    
  0.04057491701589189    0.03450869189277316    0.029869901656488396    0.02639531845242999    0.023879197635514715    
  0.02217513896870608    0.021188850904001855    0.020866171229505886    0.02118885090400181    0.022175138968705987    
  0.023879197635514715    0.026395318452430035    0.029869901656488396    0.03450869189277309    0.04057491701589186    
  0.04839971812594012    0.05841427559520443    0.07116645953039542    0.08729297980333398    0.10749131602677821    
  0.13252939900747998    0.1631926383694324    0.20001023644138868    0.24273574481058344    0.28955766593524757    
  0.33579163789165795    0.37232922670243124    0.3861283153901024    0.3659606417217817    0.31183315384577015    
  0.23885697285879684    0.16885655789617404    0.11719536539364023    0.08788753416733854    0.07867136062326657    
  0.12681277338306052    0.13723174094819754    0.16885655789617401    0.22049894438333514    0.28450563688098374    
  0.3449629809870525    0.38387161649963847    0.3914177470004008    0.3703939579422514    0.3314538388957753    
  0.2855829649462781    0.24015820359484205    0.1989373328505245    0.16335535304959006    0.13355771053400442    
  0.10905516103067096    0.0891586434431289    0.07318622359660588    0.06049219834152764    0.050470458646004364    
  0.042597855514690336    0.036463913679939806    0.03175168617242522    0.028206857365263686    0.025629941003122093    
  0.023879142225054998    0.022863384224128803    0.022530615075349772    0.022863384224128896    0.023879142225054856    
  0.025629941003122023    0.028206857365263686    0.0317516861724252    0.03646391367993976    0.042597855514690336    
  0.05047045864600434    0.060492198341527616    0.07318622359660595    0.08915864344312888    0.10905516103067094    
  0.13355771053400442    0.16335535304959004    0.19893733285052445    0.240158203594842    0.2855829649462781    
  0.3314538388957753    0.37039395794225133    0.3914177470004008    0.38387161649963847    0.34496298098705247    
  0.28450563688098374    0.22049894438333514    0.16885655789617404    0.13723174094819757    0.12681277338306052    
  0.1981804790948121    0.20860658439202817    0.23885697285879692    0.28450563688098374    0.3355739378599775    
  0.3776655116385495    0.3980105927666299    0.3920100903651939    0.36425882711673463    0.32390293151160626    
  0.2793946060992152    0.2362279724908478    0.19720388724669816    0.1633821014631348    0.13482727175484144    
  0.11112358927734134    0.0917096321864995    0.07600936422617367    0.0634412617985515    0.053441524802195696    
  0.04552389533845766    0.03930902596930746    0.03450214625575766    0.03086421423330416    0.028206788079936155    
  0.026395195347087896    0.025341949127263324    0.024996530878022314    0.025341949127263348    0.02639519534708778    
  0.028206788079936155    0.030864214233304207    0.03450214625575766    0.03930902596930741    0.04552389533845763    
  0.053441524802195696    0.0634412617985515    0.07600936422617367    0.09170963218649948    0.1111235892773413    
  0.13482727175484138    0.1633821014631348    0.19720388724669807    0.23622797249084773    0.2793946060992151    
  0.32390293151160626    0.36425882711673463    0.3920100903651939    0.39801059276662987    0.37766551163854944    
  0.3355739378599776    0.28450563688098374    0.23885697285879692    0.2086065843920282    0.1981804790948121    
  0.27945381485036525    0.2880188089585997    0.3118331538457702    0.34496298098705247    0.3776655116385495    
  0.39903274020552404    0.40158532350279025    0.3844422801107267    0.3524533408298698    0.3125765583112464    
  0.2707448537454322    0.2307727767481825    0.19464322737951464    0.16310854907063038    0.1361965865194837    
  0.11359851079098458    0.09489889617614794    0.07963524355647035    0.06729839255167348    0.05737985628978751    
  0.049444185263200796    0.04315419469043003    0.03824569648138897    0.03450207190374556    0.03175154605847211    
  0.029869712212568032    0.02877350750789717    0.028413690178850065    0.028773507507897218    0.029869712212567914    
  0.03175154605847208    0.03450207190374561    0.038245696481388904    0.043154194690430005    0.049444185263200706    
  0.057379856289787534    0.06729839255167348    0.07963524355647031    0.09489889617614791    0.11359851079098454    
  0.1361965865194837    0.16310854907063038    0.1946432273795146    0.23077277674818245    0.2707448537454322    
  0.3125765583112464    0.35245334082986984    0.3844422801107267    0.4015853235027902    0.39903274020552393    
  0.37766551163854956    0.3449629809870525    0.3118331538457702    0.2880188089585997    0.27945381485036525    
  0.346241882771193    0.3516440747940537    0.3659606417217818    0.38387161649963847    0.3980105927666298    
  0.40158532350279025    0.39113157715194463    0.36754045418103953    0.33476013140465877    0.29750841266784656    
  0.25965583148037064    0.22374294091403282    0.19114353942927356    0.16239470673217768    0.13753648416697817    
  0.11638941139091247    0.09868468582672296    0.08406918933228666    0.0721113876943544    0.0623717037722501    
  0.054479125006659    0.048148537357650754    0.04315412560334617    0.03930888981971487    0.036463721790311814    
  0.03450846012704722    0.03336666340018375    0.032991455474742463    0.03336666340018377    0.03450846012704712    
  0.03646372179031179    0.03930888981971487    0.043154125603346194    0.048148537357650685    0.054479125006659    
  0.062371703772250146    0.07211138769435442    0.08406918933228665    0.09868468582672289    0.11638941139091241    
  0.1375364841669781    0.16239470673217768    0.19114353942927353    0.22374294091403277    0.2596558314803706    
  0.29750841266784656    0.33476013140465877    0.36754045418103953    0.3911315771519446    0.4015853235027902    
  0.3980105927666298    0.3838716164996384    0.3659606417217818    0.3516440747940537    0.346241882771193    
  0.3782449392946625    0.3805519647154684    0.38612831539010245    0.3914177470004007    0.3920100903651938    
  0.3844422801107267    0.3675404541810396    0.3425450178522987    0.3121502330609477    0.27930394096203515    
  0.24644594076595314    0.2152568703295845    0.18669391989799194    0.1611644676549066    0.13875943081414224    
  0.11943132732185427    0.10303974065756294    0.08932719358629448    0.07794208059008778    0.06852487546899005    
  0.0607791312129824    0.05447907160399721    0.04944407548649691    0.04552373765229081    0.042597662234224946    
  0.040574700788515355    0.039388877232773234    0.038998452978934936    0.03938887723277326    0.040574700788515286    
  0.042597662234224926    0.04552373765229086    0.04944407548649693    0.05447907160399716    0.06077913121298236    
  0.06852487546899005    0.07794208059008775    0.08932719358629447    0.10303974065756291    0.11943132732185423    
  0.13875943081414224    0.1611644676549066    0.1866939198979919    0.21525687032958443    0.24644594076595314    
  0.27930394096203515    0.31215023306094775    0.3425450178522987    0.36754045418103953    0.3844422801107267    
  0.3920100903651938    0.3914177470004007    0.3861283153901024    0.3805519647154685    0.3782449392946625    
  0.3719366822101881    0.37221886598665416    0.37232922670243135    0.3703939579422514    0.36425882711673463    
  0.35245334082986984    0.3347601314046588    0.3121502330609478    0.2862794670961244    0.2589348560677119    
  0.23166200931405484    0.20558702504637094    0.18139264588626838    0.15942249223628976    0.13983600923633813    
  0.12269654372612682    0.10795837896369949    0.09544009602388602    0.08486859815100348    0.07596953083088466    
  0.06852484856949116    0.062371642982718065    0.05737977019338994    0.053441426340001534    0.05047035829580003    
  0.04839962158011853    0.04717891966798661    0.046775798098488496    0.04717891966798663    0.048399621580118464    
  0.05047035829580001    0.05344142634000158    0.05737977019338991    0.062371642982718016    0.06852484856949116    
  0.07596953083088463    0.08486859815100348    0.09544009602388602    0.10795837896369948    0.12269654372612679    
  0.13983600923633813    0.15942249223628974    0.18139264588626838    0.20558702504637094    0.23166200931405478    
  0.2589348560677118    0.28627946709612445    0.3121502330609477    0.3347601314046588    0.3524533408298698    
  0.36425882711673463    0.37039395794225133    0.3723292267024313    0.37221886598665416    0.3719366822101881    
  0.33839953267140194    0.3378305455673556    0.33579163789165795    0.33145383889577523    0.32390293151160626    
  0.3125765583112465    0.2975084126678466    0.2793039409620352    0.2589348560677119    0.23748847541891355    
  0.21595591746009177    0.19509896028610177    0.1754242098010093    0.15725212547833786    0.14080047782900085    
  0.1262013613020916    0.11346318330520616    0.10246051028253886    0.09299325797804492    0.08486860728685633    
  0.07794209133332045    0.07211141114198936    0.06729844620855292    0.06344135970098203    0.0604923450713334    
  0.05841446513598184    0.05717973241713548    0.056770212216026454    0.057179732417135504    0.05841446513598177    
  0.06049234507133338    0.063441359700982    0.0672984462085529    0.07211141114198932    0.07794209133332045    
  0.08486860728685633    0.09299325797804492    0.10246051028253886    0.11346318330520616    0.12620136130209159    
  0.14080047782900085    0.15725212547833786    0.17542420980100928    0.19509896028610174    0.21595591746009177    
  0.2374884754189136    0.2589348560677118    0.2793039409620352    0.2975084126678466    0.3125765583112464    
  0.32390293151160626    0.33145383889577523    0.33579163789165795    0.3378305455673556    0.33839953267140194    
  0.2923796050016921    0.2917082527205557    0.2895576659352475    0.2855829649462781    0.27939460609921507    
  0.27074485374543217    0.2596558314803706    0.24644594076595316    0.23166200931405478    0.21595591746009177    
  0.19995561338292064    0.18418028129379627    0.16902641797636184    0.15480125249805413    0.1417443330504348    
  0.13000532058659686    0.1196109221376441    0.11047535482216843    0.10246056040348556    0.0954401948794233    
  0.08932736121199775    0.08406945230551838    0.07963562420082582    0.07600987269579691    0.07318685310357    
  0.07116718647010388    0.06995359607393557    0.06954870336228273    0.06995359607393563    0.07116718647010381    
  0.07318685310357002    0.07600987269579691    0.07963562420082579    0.0840694523055184    0.08932736121199772    
  0.09544019487942325    0.10246056040348556    0.11047535482216843    0.11961092213764406    0.13000532058659686    
  0.14174433305043482    0.1548012524980541    0.16902641797636184    0.18418028129379627    0.19995561338292062    
  0.21595591746009177    0.23166200931405484    0.24644594076595316    0.2596558314803706    0.2707448537454321    
  0.2793946060992151    0.2855829649462781    0.2895576659352475    0.2917082527205557    0.2923796050016921    
  0.24462953216723518    0.2441713812311699    0.2427357448105835    0.24015820359484197    0.23622797249084762    
  0.23077277674818245    0.22374294091403282    0.21525687032958443    0.2055870250463709    0.1950989602861017    
  0.18418028129379627    0.17319341671565847    0.16245967486561694    0.15225471245910874    0.142792248670333    
  0.13419674867108908    0.12648989313906256    0.11961101399499921    0.11346337668375905    0.10795871192364888    
  0.10304025927491862    0.09868542856892738    0.09489988473530987    0.09171086626781803    0.08916009790403855    
  0.08729460627962043    0.08615633983846299    0.08577361735999865    0.08615633983846298    0.08729460627962041    
  0.08916009790403853    0.09171086626781805    0.09489988473530987    0.09868542856892738    0.10304025927491862    
  0.1079587119236489    0.11346337668375905    0.11961101399499921    0.12648989313906256    0.13419674867108908    
  0.14279224867033297    0.15225471245910874    0.16245967486561694    0.1731934167156585    0.18418028129379624    
  0.1950989602861017    0.20558702504637094    0.21525687032958443    0.22374294091403277    0.23077277674818245    
  0.23622797249084762    0.24015820359484197    0.2427357448105835    0.2441713812311699    0.24462953216723518    
  0.20076081881305433    0.2005823341508111    0.20001023644138863    0.19893733285052442    0.197203887246698    
  0.1946432273795145    0.19114353942927353    0.1866939198979919    0.18139264588626833    0.17542420980100926    
  0.16902641797636184    0.1624596748656169    0.15597718769794602    0.14979457803582413    0.1440646488848995    
  0.1388644579991748    0.13419687920643245    0.13000560614966908    0.1262018634508322    0.12269733938849264    
  0.11943248602546254    0.11639097881133303    0.11360050151530303    0.11112598484328322    0.1090579096688358    
  0.10749433607596014    0.10651966079643527    0.1061885867669183    0.10651966079643527    0.1074943360759601    
  0.10905790966883577    0.11112598484328322    0.11360050151530303    0.11639097881133303    0.11943248602546254    
  0.12269733938849262    0.12620186345083217    0.13000560614966908    0.13419687920643245    0.1388644579991748    
  0.14406464888489948    0.14979457803582413    0.15597718769794602    0.16245967486561694    0.1690264179763618    
  0.17542420980100928    0.18139264588626836    0.18669391989799192    0.19114353942927353    0.1946432273795145    
  0.19720388724669802    0.19893733285052442    0.20001023644138866    0.2005823341508111    0.20076081881305433    
  0.16297368502150478    0.1630357395026417    0.16319263836943246    0.1633553530495901    0.1633821014631349    
  0.16310854907063038    0.1623947067321777    0.1611644676549066    0.1594224922362897    0.1572521254783378    
  0.1548012524980541    0.15225471245910877    0.14979457803582416    0.1475631627296379    0.14564477815269092    
  0.14406480779333722    0.14279261149778513    0.1417449887786212    0.14080154044176427    0.13983759283832053    
  0.138761624675292    0.13753933610002422    0.1362000975591224    0.13483139721183357    0.13356236261954282    
  0.13253445244213438    0.13186747018538367    0.13163682373624408    0.13186747018538367    0.13253445244213438    
  0.13356236261954282    0.13483139721183357    0.13620009755912246    0.13753933610002422    0.138761624675292    
  0.13983759283832056    0.14080154044176427    0.1417449887786212    0.14279261149778513    0.14406480779333722    
  0.14564477815269092    0.1475631627296379    0.14979457803582413    0.15225471245910874    0.15480125249805404    
  0.15725212547833783    0.15942249223628974    0.1611644676549066    0.16239470673217773    0.16310854907063033    
  0.16338210146313487    0.16335535304959004    0.16319263836943243    0.1630357395026417    0.16297368502150478    
  0.13163143631391847    0.13186216716474627    0.13252939900748004    0.1335577105340044    0.13482727175484144    
  0.13619658651948363    0.13753648416697817    0.1387594308141423    0.13983600923633813    0.14080047782900085    
  0.1417443330504348    0.14279224867033302    0.14406464888489956    0.14564477815269097    0.14756333206217287    
  0.14979498549718778    0.15225547835902067    0.15480253229907603    0.1572540858002224    0.15942528258718777    
  0.16116819427271661    0.16239941606217892    0.1631142232336479    0.16338866114485873    0.16336266312657227    
  0.16320051675295108    0.16304397073111057    0.1629820356311059    0.16304397073111057    0.16320051675295105    
  0.16336266312657227    0.16338866114485873    0.16311422323364794    0.16239941606217895    0.16116819427271661    
  0.15942528258718777    0.15725408580022243    0.154802532299076    0.15225547835902065    0.14979498549718778    
  0.14756333206217281    0.14564477815269086    0.14406464888489956    0.14279224867033305    0.14174433305043477    
  0.14080047782900085    0.13983600923633815    0.1387594308141423    0.13753648416697817    0.13619658651948363    
  0.13482727175484144    0.1335577105340044    0.13252939900748    0.13186216716474627    0.13163143631391847    
  0.10618534053660121    0.1065164716792619    0.10749131602677828    0.10905516103067099    0.11112358927734133    
  0.11359851079098457    0.11638941139091248    0.11943132732185423    0.12269654372612683    0.12620136130209156    
  0.13000532058659686    0.13419674867108902    0.1388644579991748    0.14406480779333725    0.1497949854971878    
  0.15597799374740828    0.16246107774683935    0.16902864162432324    0.17542747475307902    0.18139713818429878    
  0.18669976351189493    0.1911507781734853    0.19465181895666792    0.19721370696318696    0.1989481833492982    
  0.20002186214306888    0.20059443937359647    0.20077308607746747    0.20059443937359647    0.20002186214306888    
  0.19894818334929817    0.19721370696318694    0.19465181895666794    0.1911507781734853    0.18669976351189493    
  0.1813971381842988    0.17542747475307902    0.16902864162432324    0.16246107774683935    0.15597799374740828    
  0.14979498549718778    0.14406480779333722    0.13886445799917474    0.13419674867108908    0.1300053205865968    
  0.12620136130209156    0.12269654372612686    0.11943132732185426    0.11638941139091248    0.11359851079098454    
  0.1111235892773413    0.10905516103067092    0.10749131602677828    0.10651647167926191    0.10618534053660121    
  0.08577184674163053    0.08615460563455513    0.08729297980333399    0.08915864344312895    0.09170963218649945    
  0.09489889617614793    0.09868468582672296    0.10303974065756295    0.10795837896369952    0.11346318330520616    
  0.11961092213764406    0.12648989313906256    0.13419687920643247    0.14279261149778516    0.15225547835902065    
  0.1624610777468394    0.17319573521566553    0.1841838109063417    0.19510398028193462    0.2055937636398267    
  0.21526547250019176    0.22375344527268812    0.23078510650447046    0.23624194103570625    0.24017353163029354    
  0.2427520845230771    0.24418834195067923    0.24464670191895052    0.24418834195067923    0.2427520845230771    
  0.24017353163029348    0.23624194103570625    0.2307851065044705    0.22375344527268817    0.21526547250019176    
  0.2055937636398267    0.19510398028193462    0.18418381090634173    0.1731957352156655    0.1624610777468394    
  0.15225547835902065    0.14279261149778513    0.13419687920643247    0.1264898931390626    0.11961092213764406    
  0.11346318330520619    0.10795837896369952    0.10303974065756295    0.09868468582672299    0.09489889617614797    
  0.09170963218649943    0.08915864344312892    0.08729297980333399    0.08615460563455513    0.08577184674163053    
  0.06954789332449646    0.06995280713314499    0.07116645953039545    0.07318622359660597    0.07600936422617369    
  0.07963524355647035    0.08406918933228671    0.08932719358629454    0.09544009602388596    0.10246051028253883    
  0.11047535482216847    0.11961101399499925    0.13000560614966913    0.14174498877862124    0.15480253229907603    
  0.16902864162432324    0.18418381090634173    0.19996082209769983    0.21596315190501675    0.23167154682839544    
  0.2464579470346724    0.2596703289866317    0.2707617101716486    0.2794135458229967    0.28560360026602605    
  0.2895795386709414    0.2917308727270983    0.2924024741940877    0.29173087272709824    0.2895795386709414    
  0.28560360026602605    0.2794135458229967    0.27076171017164863    0.2596703289866317    0.2464579470346724    
  0.23167154682839533    0.21596315190501675    0.1999608220976999    0.18418381090634178    0.16902864162432327    
  0.15480253229907606    0.1417449887786212    0.13000560614966913    0.11961101399499932    0.11047535482216844    
  0.10246051028253883    0.09544009602388602    0.08932719358629454    0.08406918933228671    0.07963524355647038    
  0.07600936422617369    0.07318622359660597    0.07116645953039545    0.06995280713314499    0.06954789332449646    
  0.05676998401080518    0.057179514216681764    0.05841427559520448    0.060492198341527664    0.0634412617985515    
  0.06729839255167348    0.07211138769435438    0.07794208059008781    0.08486859815100349    0.09299325797804495    
  0.10246056040348556    0.11346337668375903    0.1262018634508322    0.1408015404417643    0.15725408580022243    
  0.175427474753079    0.19510398028193465    0.21596315190501675    0.2374983465838125    0.25894769142877544    
  0.2793199146371266    0.2975275027682764    0.3125985344411536    0.323927379869784    0.33148022234673397    
  0.33581937280235835    0.3378590644466821    0.33842830661134204    0.337859064446682    0.33581937280235835    
  0.33148022234673397    0.323927379869784    0.31259853444115365    0.29752750276827644    0.2793199146371266    
  0.25894769142877544    0.2374983465838125    0.21596315190501675    0.19510398028193468    0.17542747475307902    
  0.15725408580022243    0.1408015404417643    0.12620186345083223    0.1134633766837591    0.10246056040348556    
  0.09299325797804492    0.08486859815100352    0.07794208059008778    0.07211138769435442    0.06729839255167348    
  0.0634412617985515    0.06049219834152764    0.05841427559520448    0.057179514216681784    0.05676998401080518    
  0.046775887822828835    0.0471790114556326    0.04839971812594019    0.050470458646004385    0.053441524802195745    
  0.057379856289787465    0.062371703772250146    0.06852487546899011    0.07596953083088463    0.08486860728685633    
  0.0954401948794233    0.1079587119236489    0.12269733938849264    0.13983759283832056    0.1594252825871878    
  0.1813971381842988    0.2055937636398267    0.23167154682839539    0.25894769142877555    0.2862959650915676    
  0.31217054255595644    0.33478412593281365    0.3524806062514728    0.3642887175556425    0.3704257195956797    
  0.3723621472502284    0.37225237846517334    0.3719703709649736    0.3722523784651733    0.3723621472502285    
  0.37042571959567977    0.3642887175556425    0.35248060625147287    0.33478412593281365    0.3121705425559565    
  0.2862959650915676    0.25894769142877555    0.23167154682839539    0.2055937636398267    0.1813971381842988    
  0.15942528258718783    0.13983759283832053    0.12269733938849268    0.10795871192364898    0.09544019487942325    
  0.08486860728685633    0.07596953083088469    0.06852487546899012    0.0623717037722501    0.057379856289787534    
  0.053441524802195696    0.050470458646004315    0.04839971812594022    0.0471790114556326    0.046775887822828835    
  0.038998684690178254    0.03938910540418592    0.04057491701589182    0.042597855514690294    0.04552389533845766    
  0.04944418526320073    0.054479125006659    0.0607791312129824    0.06852484856949112    0.07794209133332045    
  0.08932736121199769    0.10304025927491853    0.11943248602546258    0.138761624675292    0.16116819427271661    
  0.18669976351189493    0.21526547250019176    0.24645794703467236    0.2793199146371266    0.3121705425559564    
  0.34256971871200054    0.3675692003341111    0.38447431811806815    0.39204438949981774    0.3914532551602326    
  0.38616423268217803    0.38058789096755796    0.3782808231674443    0.38058789096755796    0.38616423268217803    
  0.3914532551602326    0.39204438949981774    0.3844743181180682    0.36756920033411117    0.34256971871200054    
  0.3121705425559564    0.2793199146371266    0.24645794703467236    0.21526547250019182    0.186699763511895    
  0.16116819427271661    0.138761624675292    0.11943248602546258    0.10304025927491857    0.08932736121199765    
  0.0779420913333205    0.0685248485694912    0.0607791312129824    0.054479125006659    0.049444185263200754    
  0.04552389533845763    0.04259785551469027    0.04057491701589182    0.0393891054041859    0.038998684690178254    
  0.03299171751480588    0.033366918116984584    0.03450869189277316    0.03646391367993976    0.03930902596930738    
  0.04315419469042996    0.04814853735765073    0.05447907160399721    0.062371642982717995    0.07211141114198932    
  0.08406945230551834    0.0986854285689273    0.11639097881133298    0.13753933610002422    0.16239941606217892    
  0.1911507781734853    0.22375344527268812    0.2596703289866317    0.29752750276827644    0.33478412593281354    
  0.3675692003341111    0.39116432592453043    0.40162076274576874    0.39804714025442434    0.3839079002879285    
  0.3659959182226517    0.351678359040307    0.3462757663822655    0.3516783590403069    0.36599591822265176    
  0.3839079002879285    0.3980471402544243    0.40162076274576886    0.3911643259245305    0.3675692003341111    
  0.33478412593281354    0.29752750276827644    0.2596703289866317    0.22375344527268812    0.19115077817348533    
  0.16239941606217892    0.1375393361000242    0.11639097881133303    0.0986854285689274    0.0840694523055183    
  0.07211141114198932    0.062371642982718065    0.05447907160399721    0.04814853735765073    0.04315419469043003    
  0.03930902596930738    0.036463913679939716    0.03450869189277314    0.033366918116984584    0.03299171751480588    
  0.028413918909641612    0.02877372653426893    0.029869901656488444    0.03175168617242529    0.03450214625575773    
  0.038245696481388924    0.04315412560334615    0.04944407548649703    0.05737977019338999    0.06729844620855292    
  0.07963562420082582    0.09489988473530987    0.11360050151530303    0.1362000975591225    0.16311422323364794    
  0.19465181895666792    0.2307851065044705    0.27076171017164863    0.31259853444115365    0.35248060625147287    
  0.38447431811806815    0.40162076274576874    0.39906950832969795    0.37770142053817807    0.3449964923911775    
  0.31186385541164136    0.28804736841854967    0.27948158612750884    0.28804736841854967    0.3118638554116414    