#     DFTpy    
  CRYSTAL 
    
  PRIMVEC    
  4.793379310344831    0.0    0.0    
  0.0    4.793379310344831    0.0    
  0.0    0.0    4.793379310344831    
  PRIMCOORD    
  8    1    
  Si    0.0    0.0    0.0    
  Si    1.1983448275862103    1.1983448275862103    1.1983448275862103    
  Si    0.0    2.3966896551724104    2.3966896551724104    
  Si    1.1983448275862103    3.5950344827586207    3.5950344827586207    
  Si    2.3966896551724104    0.0    2.3966896551724104    
  Si    3.5950344827586207    1.1983448275862103    3.5950344827586207    
  Si    2.3966896551724104    2.3966896551724104    0.0    
  Si    3.5950344827586207    3.5950344827586207    1.1983448275862103    
  BEGIN_BLOCK_DATAGRID_3D    
  3d_datagrid_density    
  BEGIN_DATAGRID_3D#0    
  46    46    46    
  0.0    0.0    0.0    
  4.793379328224226    0.0    0.0    
  0.0    4.793379328224226    0.0    
  0.0    0.0    4.793379328224226    
  0.04387112823966093    0.052482678060845854    0.08209540874568151    0.14066442624539463    0.22965402040974678    
  0.33241491427674785    0.4174372971970734    0.4589178669880171    0.452994508646194    0.4137994282935149    
  0.3592166114488539    0.3019993436442845    0.24891847434545966    0.202829079619162    0.16440126560846974    
  0.1332391807477747    0.10859159483998876    0.08962128920920463    0.07542804570455232    0.06512322821711192    
  0.057974180478368206    0.053471401160004546    0.05129863943252775    0.0512986394325277    0.053471401160004525    
  0.057974180478368116    0.06512322821711192    0.07542804570455232    0.08962128920920473    0.1085915948399888    
  0.13323918074777472    0.16440126560846977    0.20282907961916213    0.24891847434545966    0.3019993436442844    
  0.3592166114488539    0.4137994282935149    0.452994508646194    0.45891786698801706    0.41743729719707323    
  0.33241491427674774    0.22965402040974678    0.1406644262453946    0.08209540874568151    0.052482678060845896    
  0.04387112823966093    0.052482678060845826    0.061802471314814734    0.09325480153594054    0.15378148267657565    
  0.24326202818520537    0.3440543343008461    0.4253372117117956    0.4630813100277833    0.4546911422210963    
  0.4143998646768334    0.35956547661172894    0.3024465851653695    0.24955384377980513    0.2036421612257756    
  0.16535077749234645    0.13428086253956753    0.10968801873522535    0.09074279767884166    0.07655271474156028    
  0.06623781596797466    0.059073684415411346    0.05455706795831287    0.05237610119970868    0.05237610119970861    
  0.05455706795831287    0.05907368441541123    0.06623781596797461    0.07655271474156032    0.09074279767884172    
  0.10968801873522542    0.13428086253956753    0.16535077749234656    0.20364216122577572    0.2495538437798052    
  0.30244658516536943    0.35956547661172894    0.4143998646768334    0.4546911422210964    0.4630813100277831    
  0.4253372117117954    0.34405433430084603    0.24326202818520537    0.15378148267657565    0.09325480153594057    
  0.061802471314814776    0.052482678060845826    0.08209540874568158    0.09325480153594047    0.1292494638903847    
  0.1939312118923994    0.2829486426720999    0.37659331723676703    0.44655706028771025    0.4737524385122189    
  0.45872804336640344    0.41567297136471143    0.36036129908967185    0.30367096400984117    0.2514075701318561    
  0.20606145035283943    0.16819707845422477    0.1374167889654321    0.11300107266810991    0.094144444353308    
  0.07997680086490248    0.06964308370758938    0.06244256986736865    0.05789024023526027    0.055687441750075166    
  0.055687441750075076    0.05789024023526029    0.062442569867368604    0.06964308370758948    0.07997680086490248    
  0.09414444435330804    0.11300107266810992    0.13741678896543214    0.16819707845422482    0.20606145035283954    
  0.25140757013185616    0.3036709640098411    0.3603612990896719    0.41567297136471154    0.45872804336640355    
  0.47375243851221877    0.4465570602877101    0.376593317236767    0.2829486426720999    0.19393121189239942    
  0.12924946389038475    0.09325480153594054    0.08209540874568158    0.1406644262453946    0.15378148267657568    
  0.19393121189239942    0.2602689319770474    0.34331816405718596    0.42236790002665164    0.47403713061144964    
  0.4860437301691813    0.4623306127406726    0.41619736663525514    0.36088167886050077    0.3052951208473222    
  0.254285454054998    0.20999863398686683    0.1729206243319894    0.1426810233610034    0.11861208930836281    
  0.09994977480778093    0.08586029024293496    0.07552884141484772    0.06829305694570793    0.06369779505931013    
  0.061466690693065304    0.061466690693065276    0.06369779505931013    0.06829305694570789    0.07552884141484772    
  0.08586029024293496    0.09994977480778103    0.11861208930836288    0.14268102336100347    0.1729206243319895    
  0.2099986339868669    0.254285454054998    0.30529512084732213    0.3608816788605008    0.41619736663525514    
  0.4623306127406727    0.4860437301691812    0.4740371306114495    0.4223679000266515    0.34331816405718596    
  0.2602689319770475    0.19393121189239942    0.1537814826765757    0.1406644262453946    0.2296540204097468    
  0.24326202818520548    0.28294864267209985    0.34331816405718596    0.41148513026617234    0.4685350567052668    
  0.4978449342961663    0.4937014181655471    0.46205515138364245    0.4141307365491731    0.36007864492118574    
  0.30668617600221637    0.25781074797984194    0.21525777198197668    0.1794666867794749    0.15013691715891156    
  0.1266828764458342    0.1083987707705117    0.09450248044360432    0.08423816181472289    0.0769995210811723    
  0.0723747480607039    0.0701193031380921    0.07011930313809203    0.07237474806070383    0.07699952108117217    
  0.08423816181472293    0.09450248044360426    0.1083987707705117    0.12668287644583423    0.15013691715891156    
  0.17946668677947492    0.21525777198197676    0.257810747979842    0.30668617600221637    0.3600786449211858    
  0.4141307365491731    0.46205515138364256    0.493701418165547    0.4978449342961663    0.4685350567052668    
  0.4114851302661723    0.3433181640571859    0.28294864267209985    0.24326202818520548    0.2296540204097468    
  0.33241491427674785    0.3440543343008461    0.37659331723676703    0.42236790002665164    0.4685350567052668    
  0.5005991885781479    0.5086645392930756    0.4915155696560684    0.4551254376522471    0.4078740963485906    
  0.35690450506553045    0.30711732819031023    0.2615019835894323    0.22157363037465133    0.18777069828987744    
  0.15990231373816818    0.1374849894482125    0.11988165752274658    0.10637940268576156    0.09630714340703518    
  0.08913971711237868    0.08452655247155935    0.08226513982507219    0.08226513982507215    0.08452655247155931    
  0.08913971711237864    0.09630714340703526    0.10637940268576156    0.11988165752274658    0.13748498944821247    
  0.1599023137381682    0.18777069828987747    0.22157363037465141    0.2615019835894323    0.30711732819031023    
  0.3569045050655305    0.4078740963485906    0.4551254376522473    0.4915155696560683    0.5086645392930756    
  0.5005991885781479    0.4685350567052668    0.4223679000266516    0.37659331723676703    0.3440543343008462    
  0.33241491427674785    0.4174372971970733    0.4253372117117956    0.44655706028771014    0.47403713061144953    
  0.4978449342961664    0.5086645392930758    0.5015460066259457    0.4772453770301578    0.44041181586788863    
  0.3966571208891101    0.350724800892438    0.30607003611179967    0.2649870123853348    0.22875799770549135    
  0.1978538528004686    0.17220642878558354    0.15142833660743413    0.13494956305395456    0.12214488511581577    
  0.11246124389280637    0.10548834809103193    0.10096062417128666    0.09872875328503182    0.09872875328503178    
  0.10096062417128662    0.10548834809103179    0.11246124389280637    0.12214488511581585    0.13494956305395456    
  0.15142833660743416    0.17220642878558357    0.1978538528004686    0.22875799770549135    0.2649870123853348    
  0.3060700361117996    0.35072480089243807    0.39665712088911015    0.4404118158678888    0.4772453770301578    
  0.5015460066259456    0.5086645392930756    0.4978449342961664    0.47403713061144953    0.44655706028771014    
  0.42533721171179567    0.4174372971970733    0.45891786698801706    0.4630813100277831    0.4737524385122189    
  0.4860437301691812    0.4937014181655471    0.4915155696560683    0.4772453770301578    0.4519125604917887    
  0.4185709531476096    0.38075778553232276    0.34158579453694576    0.3034906855086447    0.2682217247968561    
  0.2368689699731404    0.20993351173652616    0.18743722379597857    0.16905159840842449    0.15426167958937656    
  0.1425492502149052    0.13351673410067308    0.12690790357883458    0.122570278797991    0.12041960029797102    
  0.12041960029797096    0.122570278797991    0.12690790357883452    0.13351673410067313    0.14254925021490517    
  0.15426167958937656    0.16905159840842449    0.1874372237959786    0.20993351173652616    0.2368689699731404    
  0.2682217247968562    0.3034906855086447    0.34158579453694576    0.3807577855323227    0.4185709531476096    
  0.4519125604917887    0.4772453770301577    0.4915155696560683    0.493701418165547    0.48604373016918107    
  0.47375243851221877    0.4630813100277831    0.45891786698801706    0.452994508646194    0.4546911422210964    
  0.45872804336640355    0.4623306127406727    0.46205515138364256    0.45512543765224717    0.4404118158678887    
  0.4185709531476096    0.391448098442476    0.3612830733644293    0.3301651640183612    0.29981343862806653    
  0.2715398680583284    0.24625081847067018    0.22442365994606453    0.20609219433175663    0.19093167796369323    
  0.17846961552548826    0.16831318228685144    0.1602528869405313    0.154222112166013    0.15020895134950446    
  0.14820616071913936    0.1482061607191393    0.15020895134950446    0.15422211216601286    0.16025288694053128    
  0.16831318228685144    0.1784696155254883    0.19093167796369329    0.20609219433175663    0.22442365994606453    
  0.24625081847067018    0.27153986805832847    0.29981343862806653    0.3301651640183612    0.3612830733644293    
  0.391448098442476    0.4185709531476096    0.44041181586788863    0.4551254376522471    0.46205515138364256    
  0.4623306127406728    0.45872804336640355    0.4546911422210965    0.452994508646194    0.41379942829351485    
  0.41439986467683343    0.41567297136471143    0.41619736663525514    0.4141307365491731    0.40787409634859056    
  0.39665712088911015    0.38075778553232276    0.3612830733644292    0.33970741050175474    0.31746093023957606    
  0.29573661356324177    0.2754750859651    0.2573638645836525    0.24175752623164207    0.2286047639323287    
  0.2175336433728069    0.20810276163349475    0.20004838482693535    0.19335995313815987    0.1881807503167807    
  0.18466278525584154    0.18289086768243915    0.18289086768243915    0.1846627852558415    0.18818075031678066    
  0.19335995313815987    0.20004838482693535    0.20810276163349473    0.2175336433728069    0.2286047639323287    
  0.24175752623164212    0.2573638645836525    0.2754750859651    0.2957366135632417    0.31746093023957606    
  0.33970741050175474    0.3612830733644292    0.3807577855323227    0.3966571208891101    0.4078740963485905    
  0.414130736549173    0.41619736663525514    0.41567297136471143    0.41439986467683343    0.41379942829351485    
  0.3592166114488539    0.3595654766117289    0.36036129908967196    0.3608816788605008    0.36007864492118574    
  0.35690450506553045    0.350724800892438    0.3415857945369458    0.3301651640183612    0.3174609302395761    
  0.3044516850737588    0.2919259711246467    0.2804763268953814    0.2705016898503779    0.26212654005148595    
  0.25513312252858555    0.24906008769524618    0.24346610604754662    0.23818071587590475    0.2333664278672723    
  0.22937812429495041    0.2265566231625181    0.2251075933435792    0.22510759334357908    0.2265566231625181    
  0.2293781242949503    0.23336642786727235    0.2381807158759048    0.24346610604754662    0.24906008769524618    
  0.25513312252858555    0.26212654005148595    0.27050168985037787    0.2804763268953814    0.2919259711246467    
  0.30445168507375875    0.3174609302395761    0.3301651640183612    0.3415857945369459    0.350724800892438    
  0.35690450506553034    0.3600786449211857    0.3608816788605009    0.36036129908967196    0.35956547661172894    
  0.3592166114488539    0.30199934364428443    0.30244658516536943    0.3036709640098413    0.3052951208473222    
  0.3066861760022163    0.3071173281903103    0.3060700361117996    0.30349068550864483    0.2998134386280666    
  0.29573661356324193    0.2919259711246467    0.28883985967817594    0.28671597231207524    0.2856000454844591    
  0.28531346891285564    0.2854154905058237    0.28529817415519443    0.2844418271191879    0.28268230718185944    
  0.28029622592207765    0.2778438956197099    0.27589589309421453    0.27483758877639886    0.2748375887763988    
  0.27589589309421453    0.2778438956197098    0.28029622592207765    0.28268230718185944    0.2844418271191879    
  0.28529817415519443    0.2854154905058237    0.28531346891285564    0.2856000454844591    0.2867159723120753    
  0.28883985967817594    0.2919259711246467    0.2957366135632419    0.29981343862806664    0.30349068550864483    
  0.3060700361117996    0.30711732819031023    0.3066861760022162    0.30529512084732213    0.3036709640098412    
  0.3024465851653695    0.30199934364428443    0.24891847434545966    0.24955384377980527    0.2514075701318562    
  0.25428545405499803    0.257810747979842    0.26150198358943233    0.2649870123853348    0.2682217247968562    
  0.2715398680583286    0.2754750859651    0.2804763268953815    0.28671597231207535    0.29407967880205105    
  0.3022423249682681    0.31069135426797273    0.318705654001674    0.32543359966291335    0.33015040690574105    
  0.3325768762053237    0.3330303644705871    0.33228103472666964    0.33121072902079024    0.330502266388267    
  0.3305022663882669    0.33121072902079024    0.33228103472666964    0.33303036447058715    0.3325768762053237    
  0.33015040690574105    0.32543359966291346    0.318705654001674    0.3106913542679727    0.30224232496826803    
  0.2940796788020511    0.2867159723120754    0.2804763268953814    0.27547508596510006    0.2715398680583285    
  0.2682217247968562    0.26498701238533473    0.2615019835894322    0.257810747979842    0.254285454054998    
  0.2514075701318562    0.24955384377980533    0.24891847434545966    0.2028290796191622    0.20364216122577578    
  0.20606145035283951    0.20999863398686686    0.21525777198197676    0.22157363037465141    0.2287579977054913    
  0.2368689699731404    0.2462508184706702    0.25736386458365257    0.2705016898503779    0.28560004548445916    
  0.30224232496826803    0.3197634399665849    0.3372945530604325    0.35374562940436316    0.3678828927554385    
  0.3786162717401806    0.38540599836265854    0.38853551070325026    0.3890413463292735    0.388314808623711    
  0.3875969097764311    0.387596909776431    0.388314808623711    0.3890413463292735    0.3885355107032503    
  0.38540599836265854    0.3786162717401806    0.36788289275543856    0.35374562940436316    0.3372945530604325    
  0.31976343996658485    0.30224232496826814    0.28560004548445916    0.2705016898503779    0.25736386458365257    
  0.24625081847067018    0.2368689699731404    0.22875799770549127    0.22157363037465136    0.21525777198197668    
  0.20999863398686686    0.20606145035283951    0.20364216122577583    0.2028290796191622    0.16440126560846985    
  0.1653507774923465    0.1681970784542247    0.17292062433198946    0.17946668677947492    0.18777069828987744    
  0.1978538528004685    0.20993351173652622    0.22442365994606453    0.24175752623164218    0.262126540051486    
  0.2853134689128557    0.3106913542679727    0.3372945530604325    0.36384574885715365    0.3887516023462054    
  0.410202177791431    0.426507784065369    0.43665925887483387    0.4408621085668604    0.4406638281783518    
  0.4384722584318273    0.4366553425028891    0.436655342502889    0.4384722584318273    0.4406638281783518    
  0.4408621085668604    0.43665925887483387    0.426507784065369    0.41020217779143103    0.3887516023462055    
  0.3638457488571536    0.3372945530604325    0.3106913542679727    0.28531346891285575    0.26212654005148595    
  0.2417575262316422    0.22442365994606453    0.2099335117365262    0.19785385280046852    0.18777069828987736    
  0.1794666867794748    0.17292062433198946    0.16819707845422477    0.16535077749234656    0.16440126560846985    
  0.13323918074777474    0.13428086253956764    0.1374167889654321    0.14268102336100347    0.15013691715891164    
  0.15990231373816824    0.17220642878558354    0.1874372237959786    0.20609219433175668    0.2286047639323287    
  0.25513312252858555    0.2854154905058237    0.318705654001674    0.35374562940436316    0.3887516023462054    
  0.42141810142799146    0.44902081759211837    0.46884621681568844    0.4791225081335886    0.48012667301877054    
  0.47463128116706693    0.4671031228850289    0.46198428859267804    0.46198428859267804    0.4671031228850289    
  0.47463128116706693    0.48012667301877054    0.4791225081335886    0.46884621681568844    0.4490208175921186    
  0.42141810142799146    0.38875160234620537    0.35374562940436316    0.31870565400167394    0.2854154905058237    
  0.25513312252858544    0.22860476393232879    0.20609219433175663    0.18743722379597857    0.17220642878558354    
  0.1599023137381682    0.1501369171589115    0.14268102336100344    0.1374167889654321    0.13428086253956764    
  0.13323918074777474    0.10859159483998886    0.10968801873522548    0.11300107266811002    0.11861208930836284    
  0.12668287644583429    0.13748498944821247    0.15142833660743418    0.16905159840842462    0.1909316779636933    
  0.21753364337280692    0.24906008769524618    0.2852981741551945    0.32543359966291335    0.3678828927554385    
  0.41020217779143103    0.4490208175921186    0.4800985453666446    0.4990516826087043    0.5031708393733677    
  0.4935303518626384    0.4755714597942047    0.45725807205096275    0.44596639702525204    0.4459663970252519    
  0.45725807205096275    0.47557145979420473    0.4935303518626384    0.5031708393733677    0.4990516826087042    
  0.4800985453666446    0.4490208175921186    0.41020217779143103    0.3678828927554385    0.3254335996629133    
  0.2852981741551945    0.24906008769524607    0.2175336433728069    0.19093167796369329    0.16905159840842462    
  0.15142833660743413    0.13748498944821239    0.12668287644583415    0.11861208930836284    0.11300107266811002    
  0.10968801873522552    0.10859159483998886    0.08962128920920483    0.09074279767884172    0.09414444435330804    
  0.09994977480778089    0.10839877077051174    0.11988165752274654    0.13494956305395442    0.15426167958937662    
  0.1784696155254882    0.2081027616334947    0.24346610604754662    0.28444182711918786    0.33015040690574105    
  0.3786162717401806    0.426507784065369    0.46884621681568844    0.4990516826087041    0.5104943451801576    
  0.4999991202485191    0.4711361722812612    0.43396018898200306    0.4008348922036311    0.38170002483619836    
  0.3817000248361983    0.4008348922036311    0.4339601889820033    0.4711361722812612    0.4999991202485191    
  0.5104943451801575    0.4990516826087042    0.46884621681568844    0.426507784065369    0.37861627174018053    
  0.33015040690574105    0.2844418271191879    0.24346610604754654    0.2081027616334947    0.17846961552548818    
  0.15426167958937662    0.13494956305395445    0.1198816575227465    0.1083987707705116    0.09994977480778089    
  0.09414444435330804    0.09074279767884176    0.08962128920920483    0.07542804570455237    0.07655271474156039    
  0.07997680086490248    0.08586029024293491    0.0945024804436044    0.10637940268576156    0.12214488511581577    
  0.14254925021490514    0.1683131822868515    0.2000483848269354    0.2381807158759048    0.2826823071818595    
  0.3325768762053237    0.38540599836265854    0.436659258874834    0.4791225081335886    0.5031708393733677    
  0.49999912024851895    0.4675536261619685    0.4143665578119785    0.35650604851603035    0.30981442066227316    
  0.28440166143738477    0.28440166143738477    0.30981442066227316    0.35650604851603035    0.41436655781197856    
  0.4675536261619685    0.49999912024851895    0.5031708393733677    0.4791225081335886    0.43665925887483387    
  0.3854059983626585    0.3325768762053237    0.28268230718185955    0.23818071587590467    0.2000483848269354    
  0.16831318228685144    0.1425492502149051    0.12214488511581581    0.1063794026857616    0.09450248044360422    
  0.08586029024293491    0.07997680086490248    0.07655271474156036    0.07542804570455237    0.06512322821711204    
  0.06623781596797469    0.0696430837075895    0.07552884141484772    0.08423816181472285    0.09630714340703513    
  0.11246124389280623    0.1335167341006732    0.1602528869405314    0.19335995313815987    0.23336642786727235    
  0.28029622592207765    0.3330303644705872    0.38853551070325026    0.4408621085668605    0.48012667301877066    
  0.4935303518626384    0.4711361722812613    0.41436655781197873    0.3387679370899153    0.2660421297406163    
  0.21259886618518567    0.1853190151274949    0.18531901512749482    0.21259886618518567    0.2660421297406163    
  0.3387679370899153    0.4143665578119786    0.4711361722812613    0.4935303518626385    0.48012667301877066    
  0.4408621085668604    0.38853551070325015    0.3330303644705872    0.28029622592207776    0.2333664278672723    
  0.19335995313815987    0.16025288694053128    0.13351673410067305    0.11246124389280623    0.09630714340703518    
  0.08423816181472285    0.07552884141484767    0.06964308370758945    0.06623781596797473    0.06512322821711204    
  0.057974180478368234    0.05907368441541123    0.062442569867368514    0.06829305694570786    0.07699952108117217    
  0.08913971711237859    0.10548834809103179    0.12690790357883452    0.1542221121660129    0.1881807503167807    
  0.2293781242949503    0.2778438956197098    0.33228103472666964    0.3890413463292735    0.4406638281783518    
  0.47463128116706693    0.47557145979420457    0.43396018898200306    0.35650604851603035    0.2660421297406163    
  0.18771324019283644    0.13530589824541417    0.11037587522922522    0.1103758752292252    0.13530589824541422    
  0.18771324019283656    0.2660421297406163    0.35650604851603035    0.43396018898200306    0.4755714597942047    
  0.4746312811670669    0.44066382817835176    0.3890413463292734    0.33228103472666953    0.2778438956197098    
  0.22937812429495022    0.18818075031678072    0.15422211216601286    0.1269079035788345    0.10548834809103187    
  0.08913971711237854    0.07699952108117211    0.06829305694570784    0.06244256986736863    0.059073684415411276    
  0.057974180478368234    0.053471401160004664    0.054557067958313006    0.05789024023526043    0.0636977950593102    
  0.0723747480607038    0.08452655247155921    0.10096062417128657    0.12257027879799103    0.15020895134950452    
  0.1846627852558416    0.2265566231625181    0.2758958930942146    0.33121072902079024    0.38831480862371104    
  0.4384722584318274    0.4671031228850289    0.4572580720509629    0.4008348922036311    0.30981442066227316    
  0.21259886618518561    0.13530589824541422    0.08777468940471309    0.06665834423222543    0.06665834423222543    
  0.08777468940471315    0.13530589824541425    0.21259886618518556    0.30981442066227316    0.400834892203631    
  0.4572580720509629    0.4671031228850288    0.4384722584318273    0.3883148086237109    0.33121072902079024    
  0.2758958930942146    0.22655662316251798    0.18466278525584154    0.15020895134950443    0.12257027879799104    
  0.10096062417128662    0.08452655247155925    0.07237474806070376    0.06369779505931013    0.05789024023526046    
  0.054557067958313055    0.053471401160004664    0.05129863943252785    0.05237610119970868    0.055687441750075145    
  0.061466690693065325    0.07011930313809206    0.08226513982507201    0.09872875328503168    0.12041960029797094    
  0.1482061607191393    0.1828908676824392    0.22510759334357922    0.2748375887763988    0.330502266388267    
  0.38759690977643113    0.4366553425028891    0.46198428859267804    0.44596639702525204    0.3817000248361984    
  0.2844016614373848    0.1853190151274949    0.11037587522922528    0.06665834423222539    0.048095975320181936    
  0.04809597532018175    0.06665834423222546    0.11037587522922532    0.18531901512749485    0.2844016614373849    
  0.3817000248361983    0.44596639702525215    0.46198428859267804    0.436655342502889    0.38759690977643096    
  0.330502266388267    0.2748375887763988    0.22510759334357905    0.18289086768243917    0.1482061607191392    
  0.12041960029797091    0.09872875328503168    0.08226513982507205    0.07011930313809199    0.061466690693065235    
  0.05568744175007512    0.0523761011997087    0.05129863943252785    0.05129863943252787    0.0523761011997087    
  0.055687441750075097    0.06146669069306537    0.07011930313809203    0.08226513982507201    0.09872875328503172    
  0.12041960029797094    0.1482061607191393    0.1828908676824392    0.22510759334357922    0.27483758877639874    
  0.3305022663882671    0.38759690977643096    0.4366553425028892    0.46198428859267804    0.44596639702525204    
  0.38170002483619836    0.2844016614373849    0.18531901512749488    0.11037587522922529    0.06665834423222547    
  0.048095975320181915    0.048095975320181776    0.06665834423222552    0.11037587522922537    0.18531901512749488    
  0.2844016614373849    0.3817000248361983    0.44596639702525204    0.46198428859267804    0.436655342502889    
  0.3875969097764309    0.3305022663882671    0.2748375887763987    0.22510759334357908    0.18289086768243917    
  0.1482061607191392    0.12041960029797091    0.09872875328503172    0.08226513982507205    0.07011930313809199    
  0.061466690693065325    0.055687441750075076    0.05237610119970873    0.05129863943252787    0.05347140116000464    
  0.05455706795831298    0.05789024023526039    0.06369779505931016    0.07237474806070386    0.08452655247155931    
  0.10096062417128662    0.12257027879799107    0.15020895134950452    0.18466278525584157    0.2265566231625181    
  0.2758958930942146    0.33121072902079024    0.38831480862371104    0.4384722584318273    0.4671031228850289    
  0.45725807205096286    0.40083489220363117    0.3098144206622732    0.21259886618518567    0.1353058982454143    
  0.08777468940471306    0.06665834423222552    0.06665834423222546    0.08777468940471309    0.13530589824541428    
  0.21259886618518567    0.30981442066227316    0.4008348922036311    0.45725807205096286    0.4671031228850289    
  0.4384722584318273    0.3883148086237109    0.33121072902079024    0.27589589309421453    0.22655662316251798    
  0.18466278525584154    0.15020895134950443    0.12257027879799104    0.10096062417128666    0.08452655247155925    
  0.07237474806070383    0.06369779505931016    0.05789024023526039    0.05455706795831303    0.05347140116000464    
  0.057974180478368206    0.05907368441541123    0.062442569867368604    0.06829305694570784    0.07699952108117207    
  0.08913971711237864    0.10548834809103179    0.12690790357883455    0.154222112166013    0.18818075031678072    
  0.22937812429495028    0.2778438956197098    0.33228103472666964    0.38904134632927345    0.44066382817835176    
  0.47463128116706693    0.47557145979420457    0.43396018898200306    0.35650604851603035    0.26604212974061625    
  0.1877132401928365    0.13530589824541414    0.11037587522922515    0.11037587522922514    0.13530589824541414    
  0.18771324019283653    0.2660421297406162    0.3565060485160304    0.43396018898200306    0.4755714597942047    
  0.4746312811670669    0.44066382817835165    0.3890413463292734    0.33228103472666953    0.2778438956197098    
  0.22937812429495014    0.1881807503167807    0.1542221121660129    0.12690790357883458    0.10548834809103187    
  0.08913971711237854    0.07699952108117207    0.06829305694570784    0.06244256986736863    0.059073684415411276    
  0.057974180478368206    0.06512322821711204    0.06623781596797469    0.06964308370758955    0.07552884141484777    
  0.08423816181472293    0.09630714340703522    0.11246124389280623    0.13351673410067308    0.1602528869405313    
  0.19335995313815987    0.23336642786727235    0.28029622592207776    0.3330303644705872    0.3885355107032503    
  0.4408621085668605    0.48012667301877066    0.49353035186263833    0.4711361722812613    0.4143665578119787    
  0.33876793708991526    0.26604212974061636    0.21259886618518567    0.18531901512749488    0.18531901512749482    
  0.21259886618518567    0.2660421297406163    0.3387679370899153    0.4143665578119787    0.4711361722812613    
  0.4935303518626384    0.48012667301877054    0.4408621085668604    0.3885355107032502    0.3330303644705872    
  0.28029622592207776    0.23336642786727224    0.1933599531381599    0.16025288694053128    0.13351673410067305    
  0.11246124389280618    0.09630714340703513    0.08423816181472289    0.07552884141484777    0.06964308370758955    
  0.06623781596797473    0.06512322821711204    0.07542804570455237    0.07655271474156036    0.07997680086490248    
  0.08586029024293491    0.0945024804436044    0.10637940268576156    0.12214488511581577    0.14254925021490514    