
     Program PWSCF v.6.5 starts on 20Mar2023 at 19: 2:23 

     This program is part of the open-source Quantum ESPRESSO suite
     for quantum simulation of materials; please cite
         "P. Giannozzi et al., J. Phys.:Condens. Matter 21 395502 (2009);
         "P. Giannozzi et al., J. Phys.:Condens. Matter 29 465901 (2017);
          URL http://www.quantum-espresso.org", 
     in publications or presentations arising from this work. More details at
     http://www.quantum-espresso.org/quote

     Serial version
     Reading input from /home/valeria/Documents/DFTPY/Fitting_densities/Si8-CD/DATA2/Si10.in
Warning: card &IONS ignored
Warning: card / ignored
Warning: card &CELL ignored
Warning: card / ignored
Warning: card &FCP ignored
Warning: card / ignored
Warning: card &RISM ignored
Warning: card / ignored

     Current dimensions of program PWSCF are:
     Max number of different atomic species (ntypx) = 10
     Max number of k-points (npk) =  40000
     Max angular momentum in pseudopotentials (lmaxx) =  3

     WARNING: check_stop already initialized
     Found symmetry operation: I + (  0.0000  0.5000  0.5000)
     This is a supercell, fractional translations are disabled
     Message from routine setup:
     using ibrav=0 with symmetry is DISCOURAGED, use correct ibrav instead

     G-vector sticks info
     --------------------
     sticks:   dense  smooth     PW     G-vecs:    dense   smooth      PW
     Sum        2029    2029    577                68999    68999   10395



     bravais-lattice index     =            0
     lattice parameter (alat)  =      10.3320  a.u.
     unit-cell volume          =    1102.9369 (a.u.)^3
     number of atoms/cell      =            8
     number of atomic types    =            1
     number of electrons       =        32.00
     number of Kohn-Sham states=           20
     kinetic-energy cutoff     =      60.0000  Ry
     charge density cutoff     =     240.0000  Ry
     convergence threshold     =      1.0E-06
     mixing beta               =       0.7000
     number of iterations used =            8  plain     mixing
     Exchange-correlation= LDA
                           (   1   1   0   0   0   0   0)

     celldm(1)=  10.331980  celldm(2)=   0.000000  celldm(3)=   0.000000
     celldm(4)=   0.000000  celldm(5)=   0.000000  celldm(6)=   0.000000

     crystal axes: (cart. coord. in units of alat)
               a(1) = (   1.000000   0.000000   0.000000 )  
               a(2) = (   0.000000   1.000000   0.000000 )  
               a(3) = (   0.000000   0.000000   1.000000 )  

     reciprocal axes: (cart. coord. in units 2 pi/alat)
               b(1) = (  1.000000  0.000000  0.000000 )  
               b(2) = (  0.000000  1.000000  0.000000 )  
               b(3) = (  0.000000  0.000000  1.000000 )  


     PseudoPot. # 1 for Si read from file:
     /home/valeria/Desktop/programs/dftpy/examples/ofpp/EAC/upf/blps/si.lda.upf
     MD5 check sum: 946fc5a8d23174f015515f8139e499ed
     Pseudo is Norm-conserving, Zval =  4.0
     DFTpy
     Using radial grid of 1601 points,  1 beta functions with: 
                l(1) =   0

     atomic species   valence    mass     pseudopotential
        Si             4.00    28.08000     Si( 1.00)

     24 Sym. Ops. (no inversion) found



   Cartesian axes

     site n.     atom                  positions (alat units)
         1           Si  tau(   1) = (   0.0000000   0.0000000   0.0000000  )
         2           Si  tau(   2) = (   0.2500000   0.2500000   0.2500000  )
         3           Si  tau(   3) = (   0.0000000   0.5000000   0.5000000  )
         4           Si  tau(   4) = (   0.2500000   0.7500000   0.7500000  )
         5           Si  tau(   5) = (   0.5000000   0.0000000   0.5000000  )
         6           Si  tau(   6) = (   0.7500000   0.2500000   0.7500000  )
         7           Si  tau(   7) = (   0.5000000   0.5000000   0.0000000  )
         8           Si  tau(   8) = (   0.7500000   0.7500000   0.2500000  )

     number of k points=   220  Gaussian smearing, width (Ry)=  0.0050

     Number of k-points >= 100: set verbosity='high' to print them.

     Dense  grid:    68999 G-vectors     FFT dimensions: (  54,  54,  54)

     Estimated max dynamical RAM per process >     645.80 MB

     Initial potential from superposition of free atoms

     starting charge   31.99488, renormalised to   32.00000
     Starting wfcs are random

     total cpu time spent up to now is       37.9 secs

     Self-consistent Calculation

     iteration #  1     ecut=    60.00 Ry     beta= 0.70
     Davidson diagonalization with overlap
     ethr =  1.00E-02,  avg # of iterations =  7.8

     Threshold (ethr) on eigenvalues was too large:
     Diagonalizing with lowered threshold

     Davidson diagonalization with overlap
     ethr =  5.56E-04,  avg # of iterations =  1.3

     total cpu time spent up to now is      434.6 secs

     total energy              =     -64.48333721 Ry
     Harris-Foulkes estimate   =     -64.53269748 Ry
     estimated scf accuracy    <       0.17916641 Ry

     iteration #  2     ecut=    60.00 Ry     beta= 0.70
     Davidson diagonalization with overlap
     ethr =  5.60E-04,  avg # of iterations =  1.0

     total cpu time spent up to now is      527.7 secs

     total energy              =     -64.48934834 Ry
     Harris-Foulkes estimate   =     -64.49075246 Ry
     estimated scf accuracy    <       0.00837965 Ry

     iteration #  3     ecut=    60.00 Ry     beta= 0.70
     Davidson diagonalization with overlap
     ethr =  2.62E-05,  avg # of iterations =  4.1

     total cpu time spent up to now is      653.5 secs

     total energy              =     -64.49036977 Ry
     Harris-Foulkes estimate   =     -64.49041472 Ry
     estimated scf accuracy    <       0.00012073 Ry

     iteration #  4     ecut=    60.00 Ry     beta= 0.70
     Davidson diagonalization with overlap
     c_bands:  1 eigenvalues not converged
     ethr =  3.77E-07,  avg # of iterations =  4.6

     total cpu time spent up to now is      810.4 secs

     End of self-consistent calculation

     Number of k-points >= 100: set verbosity='high' to print the bands.

     the Fermi energy is     6.2154 ev

!    total energy              =     -64.49041521 Ry
     Harris-Foulkes estimate   =     -64.49041530 Ry
     estimated scf accuracy    <       0.00000099 Ry

     The total energy is the sum of the following terms:

     one-electron contribution =      16.92028106 Ry
     hartree contribution      =       4.39586713 Ry
     xc contribution           =     -19.07103372 Ry
     ewald contribution        =     -66.73552961 Ry
     smearing contrib. (-TS)   =      -0.00000006 Ry

     convergence has been achieved in   4 iterations

 Energies determined by pw2casino tool
 -------------------------------------
 Kinetic energy      11.835854914414844       au  =     23.671709828829687       Ry
 Local energy       -3.3757143873128155       au  =    -6.7514287746256310       Ry
 Non-Local energy    0.0000000000000000       au  =     0.0000000000000000       Ry
 Ewald energy       -33.367764806712032       au  =    -66.735529613424063       Ry
 xc contribution    -9.5355168623953777       au  =    -19.071033724790755       Ry
 hartree energy      2.1979335661709691       au  =     4.3958671323419383       Ry
 Smearing (-TS)     -3.0006489424883483E-008  au  =    -6.0012978849766967E-008  Ry
 Total energy       -32.245207604533270       au  =    -64.490415209066541       Ry
 -------------------------------------
 Total energy0      -32.245207605840903       au  =    -64.490415211681807       Ry
 External energy0    0.0000000000000000       au  =     0.0000000000000000       Ry
 -------------------------------------


     Writing output data file ./si.save/
