
     Program PWSCF v.6.5 starts on 21Mar2023 at  1: 2:52 

     This program is part of the open-source Quantum ESPRESSO suite
     for quantum simulation of materials; please cite
         "P. Giannozzi et al., J. Phys.:Condens. Matter 21 395502 (2009);
         "P. Giannozzi et al., J. Phys.:Condens. Matter 29 465901 (2017);
          URL http://www.quantum-espresso.org", 
     in publications or presentations arising from this work. More details at
     http://www.quantum-espresso.org/quote

     Serial version
     Reading input from /home/valeria/Documents/DFTPY/Fitting_densities/Si8-CD/DATA2/Si26.in
Warning: card &IONS ignored
Warning: card / ignored
Warning: card &CELL ignored
Warning: card / ignored
Warning: card &FCP ignored
Warning: card / ignored
Warning: card &RISM ignored
Warning: card / ignored

     Current dimensions of program PWSCF are:
     Max number of different atomic species (ntypx) = 10
     Max number of k-points (npk) =  40000
     Max angular momentum in pseudopotentials (lmaxx) =  3

     WARNING: check_stop already initialized
     Found symmetry operation: I + (  0.0000 -0.5000 -0.5000)
     This is a supercell, fractional translations are disabled
     Message from routine setup:
     using ibrav=0 with symmetry is DISCOURAGED, use correct ibrav instead

     G-vector sticks info
     --------------------
     sticks:   dense  smooth     PW     G-vecs:    dense   smooth      PW
     Sum        3593    3593    989               162363   162363   23439



     bravais-lattice index     =            0
     lattice parameter (alat)  =      13.7288  a.u.
     unit-cell volume          =    2587.6008 (a.u.)^3
     number of atoms/cell      =            8
     number of atomic types    =            1
     number of electrons       =        32.00
     number of Kohn-Sham states=           20
     kinetic-energy cutoff     =      60.0000  Ry
     charge density cutoff     =     240.0000  Ry
     convergence threshold     =      1.0E-06
     mixing beta               =       0.7000
     number of iterations used =            8  plain     mixing
     Exchange-correlation= LDA
                           (   1   1   0   0   0   0   0)

     celldm(1)=  13.728795  celldm(2)=   0.000000  celldm(3)=   0.000000
     celldm(4)=   0.000000  celldm(5)=   0.000000  celldm(6)=   0.000000

     crystal axes: (cart. coord. in units of alat)
               a(1) = (   1.000000   0.000000   0.000000 )  
               a(2) = (   0.000000   1.000000   0.000000 )  
               a(3) = (   0.000000   0.000000   1.000000 )  

     reciprocal axes: (cart. coord. in units 2 pi/alat)
               b(1) = (  1.000000  0.000000  0.000000 )  
               b(2) = (  0.000000  1.000000  0.000000 )  
               b(3) = (  0.000000  0.000000  1.000000 )  


     PseudoPot. # 1 for Si read from file:
     /home/valeria/Desktop/programs/dftpy/examples/ofpp/EAC/upf/blps/si.lda.upf
     MD5 check sum: 946fc5a8d23174f015515f8139e499ed
     Pseudo is Norm-conserving, Zval =  4.0
     DFTpy
     Using radial grid of 1601 points,  1 beta functions with: 
                l(1) =   0

     atomic species   valence    mass     pseudopotential
        Si             4.00    28.08000     Si( 1.00)

     24 Sym. Ops. (no inversion) found



   Cartesian axes

     site n.     atom                  positions (alat units)
         1           Si  tau(   1) = (   0.0000000   0.0000000   0.0000000  )
         2           Si  tau(   2) = (   0.2500000   0.2500000   0.2500000  )
         3           Si  tau(   3) = (   0.0000000   0.5000000   0.5000000  )
         4           Si  tau(   4) = (   0.2500000   0.7500000   0.7500000  )
         5           Si  tau(   5) = (   0.5000000   0.0000000   0.5000000  )
         6           Si  tau(   6) = (   0.7500000   0.2500000   0.7500000  )
         7           Si  tau(   7) = (   0.5000000   0.5000000   0.0000000  )
         8           Si  tau(   8) = (   0.7500000   0.7500000   0.2500000  )

     number of k points=   220  Gaussian smearing, width (Ry)=  0.0050

     Number of k-points >= 100: set verbosity='high' to print them.

     Dense  grid:   162363 G-vectors     FFT dimensions: (  72,  72,  72)

     Estimated max dynamical RAM per process >       1.48 GB

     Initial potential from superposition of free atoms

     starting charge   31.99488, renormalised to   32.00000
     Starting wfcs are random

     total cpu time spent up to now is       88.9 secs

     Self-consistent Calculation

     iteration #  1     ecut=    60.00 Ry     beta= 0.70
     Davidson diagonalization with overlap
     ethr =  1.00E-02,  avg # of iterations =  8.1

     Threshold (ethr) on eigenvalues was too large:
     Diagonalizing with lowered threshold

     Davidson diagonalization with overlap
     ethr =  1.57E-04,  avg # of iterations =  3.4

     total cpu time spent up to now is     1170.4 secs

     total energy              =     -63.27648300 Ry
     Harris-Foulkes estimate   =     -63.28505136 Ry
     estimated scf accuracy    <       0.04991345 Ry

     iteration #  2     ecut=    60.00 Ry     beta= 0.70
     Davidson diagonalization with overlap
     ethr =  1.56E-04,  avg # of iterations =  1.0

     total cpu time spent up to now is     1388.3 secs

     total energy              =     -63.27741937 Ry
     Harris-Foulkes estimate   =     -63.27779948 Ry
     estimated scf accuracy    <       0.00322042 Ry

     iteration #  3     ecut=    60.00 Ry     beta= 0.70
     Davidson diagonalization with overlap
     ethr =  1.01E-05,  avg # of iterations =  4.7

     total cpu time spent up to now is     1653.7 secs

     total energy              =     -63.27770358 Ry
     Harris-Foulkes estimate   =     -63.27771210 Ry
     estimated scf accuracy    <       0.00002367 Ry

     iteration #  4     ecut=    60.00 Ry     beta= 0.70
     Davidson diagonalization with overlap
     c_bands:  1 eigenvalues not converged
     ethr =  7.40E-08,  avg # of iterations =  4.6

     total cpu time spent up to now is     2121.3 secs

     total energy              =     -63.27777253 Ry
     Harris-Foulkes estimate   =     -63.27777585 Ry
     estimated scf accuracy    <       0.00000937 Ry

     iteration #  5     ecut=    60.00 Ry     beta= 0.70
     Davidson diagonalization with overlap
     ethr =  2.93E-08,  avg # of iterations =  2.1

     total cpu time spent up to now is     2380.6 secs

     total energy              =     -63.27777382 Ry
     Harris-Foulkes estimate   =     -63.27777437 Ry
     estimated scf accuracy    <       0.00000137 Ry

     iteration #  6     ecut=    60.00 Ry     beta= 0.70
     Davidson diagonalization with overlap
     ethr =  4.27E-09,  avg # of iterations =  2.0

     total cpu time spent up to now is     2653.3 secs

     End of self-consistent calculation

     Number of k-points >= 100: set verbosity='high' to print the bands.

     the Fermi energy is    -0.2245 ev

!    total energy              =     -63.27777401 Ry
     Harris-Foulkes estimate   =     -63.27777406 Ry
     estimated scf accuracy    <       0.00000009 Ry

     The total energy is the sum of the following terms:

     one-electron contribution =      -4.87114374 Ry
     hartree contribution      =       8.21357353 Ry
     xc contribution           =     -16.39589723 Ry
     ewald contribution        =     -50.22364600 Ry
     smearing contrib. (-TS)   =      -0.00066057 Ry

     convergence has been achieved in   6 iterations

 Energies determined by pw2casino tool
 -------------------------------------
 Kinetic energy      9.5069082833577614       au  =     19.013816566715523       Ry
 Local energy       -11.942480155539711       au  =    -23.884960311079421       Ry
 Non-Local energy    0.0000000000000000       au  =     0.0000000000000000       Ry
 Ewald energy       -25.111822999378148       au  =    -50.223645998756297       Ry
 xc contribution    -8.1979486132142156       au  =    -16.395897226428431       Ry
 hartree energy      4.1067867647214200       au  =     8.2135735294428400       Ry
 Smearing (-TS)     -3.3028376369370724E-004  au  =    -6.6056752738741448E-004  Ry
 Total energy       -31.638887002880626       au  =    -63.277774005761252       Ry
 -------------------------------------
 Total energy0      -31.638887003816588       au  =    -63.277774007633177       Ry
 External energy0    0.0000000000000000       au  =     0.0000000000000000       Ry
 -------------------------------------


     Writing output data file ./si.save/
