
     Program PWSCF v.6.5 starts on 27Jun2023 at 17:51:39 

     This program is part of the open-source Quantum ESPRESSO suite
     for quantum simulation of materials; please cite
         "P. Giannozzi et al., J. Phys.:Condens. Matter 21 395502 (2009);
         "P. Giannozzi et al., J. Phys.:Condens. Matter 29 465901 (2017);
          URL http://www.quantum-espresso.org", 
     in publications or presentations arising from this work. More details at
     http://www.quantum-espresso.org/quote

     Serial version
     Reading input from /home/valeria/Documents/DFTPY/cWT-KEDF/Phases/Model_ML_function/Ks_calculations/DATA_sh/Si_sh16.in
Warning: card &IONS ignored
Warning: card / ignored
Warning: card &CELL ignored
Warning: card / ignored
Warning: card &FCP ignored
Warning: card / ignored
Warning: card &RISM ignored
Warning: card / ignored

     Current dimensions of program PWSCF are:
     Max number of different atomic species (ntypx) = 10
     Max number of k-points (npk) =  40000
     Max angular momentum in pseudopotentials (lmaxx) =  3

     WARNING: check_stop already initialized
     Message from routine setup:
     using ibrav=0 with symmetry is DISCOURAGED, use correct ibrav instead

     G-vector sticks info
     --------------------
     sticks:   dense  smooth     PW     G-vecs:    dense   smooth      PW
     Sum         511     511    163                 9007     9007    1701



     bravais-lattice index     =            0
     lattice parameter (alat)  =       5.6010  a.u.
     unit-cell volume          =     143.2164 (a.u.)^3
     number of atoms/cell      =            1
     number of atomic types    =            1
     number of electrons       =         4.00
     number of Kohn-Sham states=            6
     kinetic-energy cutoff     =      60.0000  Ry
     charge density cutoff     =     240.0000  Ry
     convergence threshold     =      1.0E-06
     mixing beta               =       0.7000
     number of iterations used =            8  plain     mixing
     Exchange-correlation= LDA
                           (   1   1   0   0   0   0   0)

     celldm(1)=   5.601005  celldm(2)=   0.000000  celldm(3)=   0.000000
     celldm(4)=   0.000000  celldm(5)=   0.000000  celldm(6)=   0.000000

     crystal axes: (cart. coord. in units of alat)
               a(1) = (   0.500000  -0.866025   0.000000 )  
               a(2) = (   0.500000   0.866025   0.000000 )  
               a(3) = (   0.000000   0.000000   0.941162 )  

     reciprocal axes: (cart. coord. in units 2 pi/alat)
               b(1) = (  1.000000 -0.577350  0.000000 )  
               b(2) = (  1.000000  0.577350 -0.000000 )  
               b(3) = ( -0.000000  0.000000  1.062517 )  


     PseudoPot. # 1 for Si read from file:
     /home/valeria/Desktop/programs/dftpy/examples/ofpp/EAC/upf/blps/si.lda.upf
     MD5 check sum: 946fc5a8d23174f015515f8139e499ed
     Pseudo is Norm-conserving, Zval =  4.0
     DFTpy
     Using radial grid of 1601 points,  1 beta functions with: 
                l(1) =   0

     atomic species   valence    mass     pseudopotential
        Si             4.00    28.08000     Si( 1.00)

     24 Sym. Ops., with inversion, found



   Cartesian axes

     site n.     atom                  positions (alat units)
         1           Si  tau(   1) = (   0.0000000   0.0000000   0.0000000  )

     number of k points=  1100  Gaussian smearing, width (Ry)=  0.0050

     Number of k-points >= 100: set verbosity='high' to print them.

     Dense  grid:     9007 G-vectors     FFT dimensions: (  27,  27,  25)

     Estimated max dynamical RAM per process >     119.18 MB

     Initial potential from superposition of free atoms

     starting charge    3.99936, renormalised to    4.00000
     Starting wfcs are random

     total cpu time spent up to now is        8.6 secs

     Self-consistent Calculation

     iteration #  1     ecut=    60.00 Ry     beta= 0.70
     Davidson diagonalization with overlap
     ethr =  1.00E-02,  avg # of iterations =  6.4

     Threshold (ethr) on eigenvalues was too large:
     Diagonalizing with lowered threshold

     Davidson diagonalization with overlap
     ethr =  1.02E-04,  avg # of iterations =  2.1

     total cpu time spent up to now is       89.6 secs

     total energy              =      -8.01013570 Ry
     Harris-Foulkes estimate   =      -8.01121068 Ry
     estimated scf accuracy    <       0.00396309 Ry

     iteration #  2     ecut=    60.00 Ry     beta= 0.70
     Davidson diagonalization with overlap
     ethr =  9.91E-05,  avg # of iterations =  1.0

     total cpu time spent up to now is      116.0 secs

     total energy              =      -8.01026623 Ry
     Harris-Foulkes estimate   =      -8.01028671 Ry
     estimated scf accuracy    <       0.00019300 Ry

     iteration #  3     ecut=    60.00 Ry     beta= 0.70
     Davidson diagonalization with overlap
     ethr =  4.83E-06,  avg # of iterations =  2.0

     total cpu time spent up to now is      147.2 secs

     total energy              =      -8.01027654 Ry
     Harris-Foulkes estimate   =      -8.01027658 Ry
     estimated scf accuracy    <       0.00000250 Ry

     iteration #  4     ecut=    60.00 Ry     beta= 0.70
     Davidson diagonalization with overlap
     ethr =  6.24E-08,  avg # of iterations =  1.9

     total cpu time spent up to now is      177.6 secs

     End of self-consistent calculation

     Number of k-points >= 100: set verbosity='high' to print the bands.

     the Fermi energy is     5.7121 ev

!    total energy              =      -8.01027705 Ry
     Harris-Foulkes estimate   =      -8.01027707 Ry
     estimated scf accuracy    <       0.00000003 Ry

     The total energy is the sum of the following terms:

     one-electron contribution =       2.81081145 Ry
     hartree contribution      =       0.17394169 Ry
     xc contribution           =      -2.24708506 Ry
     ewald contribution        =      -8.74787643 Ry
     smearing contrib. (-TS)   =      -0.00006871 Ry

     convergence has been achieved in   4 iterations

 Energies determined by pw2casino tool
 -------------------------------------
 Kinetic energy      1.3145642805148146       au  =     2.6291285610296291       Ry
 Local energy        9.0841445703351731E-002  au  =    0.18168289140670346       Ry
 Non-Local energy    0.0000000000000000       au  =     0.0000000000000000       Ry
 Ewald energy       -4.3739382139143430       au  =    -8.7478764278286860       Ry
 xc contribution    -1.1235425279889133       au  =    -2.2470850559778266       Ry
 hartree energy      8.6970843710347981E-002  au  =    0.17394168742069596       Ry
 Smearing (-TS)     -3.4354245920620520E-005  au  =    -6.8708491841241041E-005  Ry
 Total energy       -4.0051385262204420       au  =    -8.0102770524408839       Ry
 -------------------------------------
 Total energy0      -4.0051385262206631       au  =    -8.0102770524413263       Ry
 External energy0    0.0000000000000000       au  =     0.0000000000000000       Ry
 -------------------------------------


     Writing output data file ./si.save/
