
     Program PWSCF v.6.5 starts on 27Jun2023 at 17:43:21 

     This program is part of the open-source Quantum ESPRESSO suite
     for quantum simulation of materials; please cite
         "P. Giannozzi et al., J. Phys.:Condens. Matter 21 395502 (2009);
         "P. Giannozzi et al., J. Phys.:Condens. Matter 29 465901 (2017);
          URL http://www.quantum-espresso.org", 
     in publications or presentations arising from this work. More details at
     http://www.quantum-espresso.org/quote

     Serial version
     Reading input from /home/valeria/Documents/DFTPY/cWT-KEDF/Phases/Model_ML_function/Ks_calculations/DATA_sh/Si_sh13.in
Warning: card &IONS ignored
Warning: card / ignored
Warning: card &CELL ignored
Warning: card / ignored
Warning: card &FCP ignored
Warning: card / ignored
Warning: card &RISM ignored
Warning: card / ignored

     Current dimensions of program PWSCF are:
     Max number of different atomic species (ntypx) = 10
     Max number of k-points (npk) =  40000
     Max angular momentum in pseudopotentials (lmaxx) =  3

     WARNING: check_stop already initialized
     Message from routine setup:
     using ibrav=0 with symmetry is DISCOURAGED, use correct ibrav instead

     G-vector sticks info
     --------------------
     sticks:   dense  smooth     PW     G-vecs:    dense   smooth      PW
     Sum         463     463    163                 7579     7579    1497



     bravais-lattice index     =            0
     lattice parameter (alat)  =       5.2936  a.u.
     unit-cell volume          =     120.9084 (a.u.)^3
     number of atoms/cell      =            1
     number of atomic types    =            1
     number of electrons       =         4.00
     number of Kohn-Sham states=            6
     kinetic-energy cutoff     =      60.0000  Ry
     charge density cutoff     =     240.0000  Ry
     convergence threshold     =      1.0E-06
     mixing beta               =       0.7000
     number of iterations used =            8  plain     mixing
     Exchange-correlation= LDA
                           (   1   1   0   0   0   0   0)

     celldm(1)=   5.293633  celldm(2)=   0.000000  celldm(3)=   0.000000
     celldm(4)=   0.000000  celldm(5)=   0.000000  celldm(6)=   0.000000

     crystal axes: (cart. coord. in units of alat)
               a(1) = (   0.500000  -0.866025   0.000000 )  
               a(2) = (   0.500000   0.866025   0.000000 )  
               a(3) = (   0.000000   0.000000   0.941162 )  

     reciprocal axes: (cart. coord. in units 2 pi/alat)
               b(1) = (  1.000000 -0.577350  0.000000 )  
               b(2) = (  1.000000  0.577350 -0.000000 )  
               b(3) = ( -0.000000  0.000000  1.062517 )  


     PseudoPot. # 1 for Si read from file:
     /home/valeria/Desktop/programs/dftpy/examples/ofpp/EAC/upf/blps/si.lda.upf
     MD5 check sum: 946fc5a8d23174f015515f8139e499ed
     Pseudo is Norm-conserving, Zval =  4.0
     DFTpy
     Using radial grid of 1601 points,  1 beta functions with: 
                l(1) =   0

     atomic species   valence    mass     pseudopotential
        Si             4.00    28.08000     Si( 1.00)

     24 Sym. Ops., with inversion, found



   Cartesian axes

     site n.     atom                  positions (alat units)
         1           Si  tau(   1) = (   0.0000000   0.0000000   0.0000000  )

     number of k points=  1100  Gaussian smearing, width (Ry)=  0.0050

     Number of k-points >= 100: set verbosity='high' to print them.

     Dense  grid:     7579 G-vectors     FFT dimensions: (  27,  27,  25)

     Estimated max dynamical RAM per process >     100.81 MB

     Initial potential from superposition of free atoms

     starting charge    3.99936, renormalised to    4.00000
     Starting wfcs are random

     total cpu time spent up to now is       11.2 secs

     Self-consistent Calculation

     iteration #  1     ecut=    60.00 Ry     beta= 0.70
     Davidson diagonalization with overlap
     ethr =  1.00E-02,  avg # of iterations =  6.3

     Threshold (ethr) on eigenvalues was too large:
     Diagonalizing with lowered threshold

     Davidson diagonalization with overlap
     ethr =  1.12E-04,  avg # of iterations =  1.9

     total cpu time spent up to now is       95.9 secs

     total energy              =      -8.03475690 Ry
     Harris-Foulkes estimate   =      -8.03565626 Ry
     estimated scf accuracy    <       0.00440878 Ry

     iteration #  2     ecut=    60.00 Ry     beta= 0.70
     Davidson diagonalization with overlap
     ethr =  1.10E-04,  avg # of iterations =  1.0

     total cpu time spent up to now is      118.6 secs

     total energy              =      -8.03483973 Ry
     Harris-Foulkes estimate   =      -8.03486735 Ry
     estimated scf accuracy    <       0.00027140 Ry

     iteration #  3     ecut=    60.00 Ry     beta= 0.70
     Davidson diagonalization with overlap
     ethr =  6.79E-06,  avg # of iterations =  1.7

     total cpu time spent up to now is      142.2 secs

     total energy              =      -8.03484739 Ry
     Harris-Foulkes estimate   =      -8.03484762 Ry
     estimated scf accuracy    <       0.00000220 Ry

     iteration #  4     ecut=    60.00 Ry     beta= 0.70
     Davidson diagonalization with overlap
     ethr =  5.50E-08,  avg # of iterations =  1.9

     total cpu time spent up to now is      167.2 secs

     End of self-consistent calculation

     Number of k-points >= 100: set verbosity='high' to print the bands.

     the Fermi energy is     7.5507 ev

!    total energy              =      -8.03484774 Ry
     Harris-Foulkes estimate   =      -8.03484775 Ry
     estimated scf accuracy    <       0.00000002 Ry

     The total energy is the sum of the following terms:

     one-electron contribution =       3.43528608 Ry
     hartree contribution      =       0.12184694 Ry
     xc contribution           =      -2.33608103 Ry
     ewald contribution        =      -9.25581764 Ry
     smearing contrib. (-TS)   =      -0.00008210 Ry

     convergence has been achieved in   4 iterations

 Energies determined by pw2casino tool
 -------------------------------------
 Kinetic energy      1.3989968662610206       au  =     2.7979937325220412       Ry
 Local energy       0.31864617564913578       au  =    0.63729235129827155       Ry
 Non-Local energy    0.0000000000000000       au  =     0.0000000000000000       Ry
 Ewald energy       -4.6279088198877343       au  =    -9.2558176397754686       Ry
 xc contribution    -1.1680405138042920       au  =    -2.3360810276085839       Ry
 hartree energy      6.0923468565524844E-002  au  =    0.12184693713104969       Ry
 Smearing (-TS)     -4.1047879501636248E-005  au  =    -8.2095759003272497E-005  Ry
 Total energy       -4.0174238710956738       au  =    -8.0348477421913476       Ry
 -------------------------------------
 Total energy0      -4.0174238710958470       au  =    -8.0348477421916940       Ry
 External energy0    0.0000000000000000       au  =     0.0000000000000000       Ry
 -------------------------------------


     Writing output data file ./si.save/
