
     Program PWSCF v.6.5 starts on 27Jun2023 at 17:48:48 

     This program is part of the open-source Quantum ESPRESSO suite
     for quantum simulation of materials; please cite
         "P. Giannozzi et al., J. Phys.:Condens. Matter 21 395502 (2009);
         "P. Giannozzi et al., J. Phys.:Condens. Matter 29 465901 (2017);
          URL http://www.quantum-espresso.org", 
     in publications or presentations arising from this work. More details at
     http://www.quantum-espresso.org/quote

     Serial version
     Reading input from /home/valeria/Documents/DFTPY/cWT-KEDF/Phases/Model_ML_function/Ks_calculations/DATA_sh/Si_sh15.in
Warning: card &IONS ignored
Warning: card / ignored
Warning: card &CELL ignored
Warning: card / ignored
Warning: card &FCP ignored
Warning: card / ignored
Warning: card &RISM ignored
Warning: card / ignored

     Current dimensions of program PWSCF are:
     Max number of different atomic species (ntypx) = 10
     Max number of k-points (npk) =  40000
     Max angular momentum in pseudopotentials (lmaxx) =  3

     WARNING: check_stop already initialized
     Message from routine setup:
     using ibrav=0 with symmetry is DISCOURAGED, use correct ibrav instead

     G-vector sticks info
     --------------------
     sticks:   dense  smooth     PW     G-vecs:    dense   smooth      PW
     Sum         499     499    163                 8503     8503    1641



     bravais-lattice index     =            0
     lattice parameter (alat)  =       5.4985  a.u.
     unit-cell volume          =     135.4999 (a.u.)^3
     number of atoms/cell      =            1
     number of atomic types    =            1
     number of electrons       =         4.00
     number of Kohn-Sham states=            6
     kinetic-energy cutoff     =      60.0000  Ry
     charge density cutoff     =     240.0000  Ry
     convergence threshold     =      1.0E-06
     mixing beta               =       0.7000
     number of iterations used =            8  plain     mixing
     Exchange-correlation= LDA
                           (   1   1   0   0   0   0   0)

     celldm(1)=   5.498548  celldm(2)=   0.000000  celldm(3)=   0.000000
     celldm(4)=   0.000000  celldm(5)=   0.000000  celldm(6)=   0.000000

     crystal axes: (cart. coord. in units of alat)
               a(1) = (   0.500000  -0.866025   0.000000 )  
               a(2) = (   0.500000   0.866025   0.000000 )  
               a(3) = (   0.000000   0.000000   0.941162 )  

     reciprocal axes: (cart. coord. in units 2 pi/alat)
               b(1) = (  1.000000 -0.577350  0.000000 )  
               b(2) = (  1.000000  0.577350 -0.000000 )  
               b(3) = ( -0.000000  0.000000  1.062517 )  


     PseudoPot. # 1 for Si read from file:
     /home/valeria/Desktop/programs/dftpy/examples/ofpp/EAC/upf/blps/si.lda.upf
     MD5 check sum: 946fc5a8d23174f015515f8139e499ed
     Pseudo is Norm-conserving, Zval =  4.0
     DFTpy
     Using radial grid of 1601 points,  1 beta functions with: 
                l(1) =   0

     atomic species   valence    mass     pseudopotential
        Si             4.00    28.08000     Si( 1.00)

     24 Sym. Ops., with inversion, found



   Cartesian axes

     site n.     atom                  positions (alat units)
         1           Si  tau(   1) = (   0.0000000   0.0000000   0.0000000  )

     number of k points=  1100  Gaussian smearing, width (Ry)=  0.0050

     Number of k-points >= 100: set verbosity='high' to print them.

     Dense  grid:     8503 G-vectors     FFT dimensions: (  27,  27,  25)

     Estimated max dynamical RAM per process >     112.77 MB

     Initial potential from superposition of free atoms

     starting charge    3.99936, renormalised to    4.00000
     Starting wfcs are random

     total cpu time spent up to now is        7.7 secs

     Self-consistent Calculation

     iteration #  1     ecut=    60.00 Ry     beta= 0.70
     Davidson diagonalization with overlap
     ethr =  1.00E-02,  avg # of iterations =  6.3

     Threshold (ethr) on eigenvalues was too large:
     Diagonalizing with lowered threshold

     Davidson diagonalization with overlap
     ethr =  1.04E-04,  avg # of iterations =  2.0

     total cpu time spent up to now is       93.1 secs

     total energy              =      -8.01876621 Ry
     Harris-Foulkes estimate   =      -8.01977776 Ry
     estimated scf accuracy    <       0.00405951 Ry

     iteration #  2     ecut=    60.00 Ry     beta= 0.70
     Davidson diagonalization with overlap
     ethr =  1.01E-04,  avg # of iterations =  1.0

     total cpu time spent up to now is      116.5 secs

     total energy              =      -8.01888130 Ry
     Harris-Foulkes estimate   =      -8.01890391 Ry
     estimated scf accuracy    <       0.00021492 Ry

     iteration #  3     ecut=    60.00 Ry     beta= 0.70
     Davidson diagonalization with overlap
     ethr =  5.37E-06,  avg # of iterations =  1.9

     total cpu time spent up to now is      142.3 secs

     total energy              =      -8.01889070 Ry
     Harris-Foulkes estimate   =      -8.01889082 Ry
     estimated scf accuracy    <       0.00000247 Ry

     iteration #  4     ecut=    60.00 Ry     beta= 0.70
     Davidson diagonalization with overlap
     ethr =  6.18E-08,  avg # of iterations =  1.9

     total cpu time spent up to now is      166.8 secs

     End of self-consistent calculation

     Number of k-points >= 100: set verbosity='high' to print the bands.

     the Fermi energy is     6.2871 ev

!    total energy              =      -8.01889116 Ry
     Harris-Foulkes estimate   =      -8.01889118 Ry
     estimated scf accuracy    <       0.00000003 Ry

     The total energy is the sum of the following terms:

     one-electron contribution =       3.01155451 Ry
     hartree contribution      =       0.15530481 Ry
     xc contribution           =      -2.27479864 Ry
     ewald contribution        =      -8.91088034 Ry
     smearing contrib. (-TS)   =      -0.00007151 Ry

     convergence has been achieved in   4 iterations

 Energies determined by pw2casino tool
 -------------------------------------
 Kinetic energy      1.3396554347221203       au  =     2.6793108694442407       Ry
 Local energy       0.16612182068585629       au  =    0.33224364137171258       Ry
 Non-Local energy    0.0000000000000000       au  =     0.0000000000000000       Ry
 Ewald energy       -4.4554401682331566       au  =    -8.9108803364663132       Ry
 xc contribution    -1.1373993210458457       au  =    -2.2747986420916915       Ry
 hartree energy      7.7652405029153354E-002  au  =    0.15530481005830671       Ry
 Smearing (-TS)     -3.5752633280505888E-005  au  =    -7.1505266561011776E-005  Ry
 Total energy       -4.0094455814749361       au  =    -8.0188911629498723       Ry
 -------------------------------------
 Total energy0      -4.0094455814751528       au  =    -8.0188911629503057       Ry
 External energy0    0.0000000000000000       au  =     0.0000000000000000       Ry
 -------------------------------------


     Writing output data file ./si.save/
