#     DFTpy    
  CRYSTAL 
    
  PRIMVEC    
  3.9475172413793103    0.0    0.0    
  0.0    3.9475172413793103    0.0    
  0.0    0.0    2.1748275862068964    
  PRIMCOORD    
  4    1    
  Si    0.0    0.0    0.0    
  Si    1.9737586206896551    1.9737586206896551    1.0874137931034482    
  Si    0.0    1.9737586206896551    0.5437068965517241    
  Si    1.9737586206896551    0.0    1.6311206896551724    
  BEGIN_BLOCK_DATAGRID_3D    
  3d_datagrid_density    
  BEGIN_DATAGRID_3D#0    
  17    17    11    
  0.0    0.0    0.0    
  3.9475172413793103    0.0    0.0    
  0.0    3.9475172413793103    0.0    
  0.0    0.0    2.1748275862068964    
  0.0519774475417534    0.10850070601365851    0.3428058585506633    0.6249994281505478    0.7124641290796562    
  0.6836786982674415    0.5827032553114401    0.4418177021580473    0.3770507534219286    0.44181763343550956    
  0.5827034314404613    0.6836787122013273    0.7124640922477369    0.6249993944419836    0.3428058637983012    
  0.10850072470572296    0.0519774475417534    0.10850073720457375    0.17762707782881956    0.3994668126375554    
  0.6085918014953662    0.6558733382111295    0.6330193044284546    0.5670715116541551    0.4660151600783114    
  0.41605083917749813    0.46601511791374445    0.5670715844991104    0.6330193815238445    0.6558732696658958    
  0.6085917475487378    0.39946692321693444    0.1776271208574522    0.10850073720457375    0.3428058247939785    
  0.3994668697616937    0.5094089631015808    0.5494334145249133    0.5256074370575183    0.5120417637747277    
  0.50898862298668    0.49174365848321977    0.47900139385042095    0.49174357753179354    0.5089887093463    
  0.5120418246260663    0.5256074273032754    0.5494333904535369    0.5094087758476085    0.39946686116364477    
  0.3428058247939785    0.6249996519770247    0.6085917187894495    0.5494334251977807    0.46389834112851336    
  0.40330325852400417    0.39521137541136747    0.42744682474650675    0.46670420603011165    0.4835949739917071    
  0.46670404809779104    0.4274467245548834    0.39521145871730873    0.4033032906044876    0.4638982427320924    
  0.5494335593332782    0.6085917585490699    0.6249996519770247    0.7124639554158058    0.6558732331422549    
  0.5256075017479912    0.40330323702141196    0.3374325142700591    0.33308068297588705    0.3755774526401997    
  0.4325243240171814    0.4593406209650784    0.4325242556776016    0.37557749295542453    0.3330806362866946    
  0.33743252662919615    0.40330327365872687    0.5256074429252146    0.6558732891210144    0.7124639554158058    
  0.6836787054921146    0.6330194739016166    0.5120417926279422    0.39521150120993376    0.3330807840861839    
  0.3323371786395669    0.3793000246239761    0.4415692250279357    0.4710561397445649    0.4415691862261497    
  0.37930003258877565    0.33233728109680705    0.33308078890723575    0.39521143151942895    0.5120417591487176    
  0.6330193977396826    0.6836787054921146    0.5827033040239081    0.5670715134512603    0.5089886229323037    
  0.4274468207030973    0.3755774811754006    0.37930001873534713    0.4308825546150819    0.49697775043785375    
  0.5279011140028405    0.49697760334406627    0.4308825922393586    0.37930005536606876    0.37557744044214814    
  0.4274466982507366    0.5089886067852984    0.5670716119443753    0.5827033040239081    0.44181773705664346    
  0.4660151009422819    0.49174361060647015    0.46670409917596095    0.4325243315590028    0.44156914581478973    
  0.49697774790602917    0.5643667077752242    0.5949092923356394    0.5643666454532468    0.4969776644354768    
  0.44156914915075623    0.4325243534571586    0.4667040218878154    0.4917436878594146    0.46601509940271757    
  0.44181773705664346    0.3770507381819973    0.4160507442092656    0.4790014157081583    0.483594945731573    
  0.4593406525671793    0.47105603854974476    0.527900980213483    0.5949093455230507    0.624465984398501    
  0.5949092724943202    0.5279011277759578    0.47105608725517367    0.4593406927052681    0.48359501704585156    
  0.47900140807043573    0.4160508256452185    0.3770507381819973    0.44181770587710434    0.466015083158237    
  0.49174354983500895    0.46670405447171204    0.4325243947269088    0.44156919518432297    0.49697766551904193    
  0.5643666786654459    0.5949093548065828    0.5643665265346559    0.4969777040086949    0.441569199034665    
  0.43252433995575085    0.46670397515354034    0.4917437592623259    0.46601516094105894    0.44181770587710434    
  0.5827031592168713    0.567071614745379    0.5089886271612685    0.4274467115449095    0.3755774348294782    
  0.3793000512491348    0.4308825688496277    0.49697771098498966    0.5279010837644963    0.49697756077716176    
  0.4308825236613693    0.37930005267322986    0.3755774835302178    0.4274467861267694    0.5089885665406277    
  0.5670715656408304    0.5827031592168713    0.6836788256843225    0.633019411733551    0.5120418667285107    
  0.39521146993862727    0.33308078052702444    0.3323371854766517    0.3793000681603473    0.44156923402946613    
  0.4710562251398627    0.4415691690399887    0.3793000742346655    0.33233719377212684    0.3330807962063214    
  0.3952114584973199    0.5120418327407614    0.6330194662707709    0.6836788256843225    0.7124639613465601    
  0.6558732259073331    0.5256074033416834    0.4033032645101871    0.33743254064043265    0.3330806638878402    
  0.3755774323115581    0.4325243404362928    0.4593406089500595    0.43252421994895435    0.3755775144422079    
  0.33308068248220346    0.3374324877519395    0.4033032417307603    0.5256074530660033    0.6558732468861279    
  0.7124639613465601    0.6249994626182319    0.6085918305563246    0.5494334688618742    0.46389829795428983    
  0.4033032646440105    0.3952113897349847    0.4274467483927477    0.46670407990774715    0.4835948907743229    
  0.466704007789382    0.42744677287187427    0.39521153719131663    0.403303228092693    0.4638982312836353    
  0.5494334034798228    0.6085918559697867    0.6249994626182319    0.34280580065403193    0.39946681577989496    
  0.5094088905766045    0.5494334715132506    0.5256075399810702    0.512041800630654    0.5089886435584928    
  0.49174363519747927    0.47900142675284685    0.491743617726236    0.5089887064097469    0.5120417942414416    
  0.5256075489696495    0.549433444076617    0.509408863348486    0.39946686340047155    0.34280580065403193    
  0.10850075086745695    0.1776271152963771    0.39946684326436604    0.6085917351899134    0.6558732811090183    
  0.6330194390201372    0.5670715464700369    0.4660152162281674    0.4160508562580933    0.4660150592247295    
  0.5670714853394311    0.633019379650615    0.6558733191756495    0.608591662418827    0.3994668918339591    
  0.17762711388544788    0.10850075086745695    0.0519774475417534    0.10850070601365851    0.3428058585506633    
  0.6249994281505478    0.7124641290796562    0.6836786982674415    0.5827032553114401    0.4418177021580473    
  0.3770507534219286    0.44181763343550956    0.5827034314404613    0.6836787122013273    0.7124640922477369    
  0.6249993944419836    0.3428058637983012    0.10850072470572296    0.0519774475417534    0.0922628365387497    
  0.1557622555096075    0.36445777148577485    0.56081066143509    0.6019394417171361    0.5952323811349858    
  0.5929550859600482    0.5800412906474879    0.5692132774185749    0.580041148753586    0.5929551857613463    
  0.5952324093723457    0.6019393937519097    0.560810773323619    0.36445772290658235    0.1557622679870621    
  0.0922628365387497    0.16333611912636234    0.2323500791160374    0.41608958752655995    0.5489998732483117    
  0.5590543266214965    0.5499167632615036    0.5565841186363181    0.5586670416523433    0.5558882543821334    
  0.5586670028355265    0.5565842804280495    0.549916815270773    0.5590543613356967    0.5489997245681983    
  0.41608965482206967    0.23235008032174187    0.16333611912636234    0.4149800817695215    0.45600787799509834    
  0.517246958464249    0.5077606563433988    0.46209879393369185    0.4478342463075896    0.46950219528090076    
  0.49818727699778875    0.5103032175535106    0.49818725992296364    0.469502217796272    0.44783416353049477    
  0.46209876644428044    0.5077606569741778    0.5172468971021432    0.4560079244699938    0.4149800817695215    
  0.6902015882589584    0.6580056036830739    0.5643038008714666    0.45060843076340806    0.374708858931813    
  0.3574954957163955    0.38610032384516146    0.428957302674402    0.4493595720730591    0.4289572132952707    
  0.3861003522239129    0.35749561452459455    0.3747088728383498    0.4506083807136993    0.5643038950714847    
  0.6580057699204453    0.6902015882589584    0.7774403606662407    0.7120671737321607    0.5614684002736063    
  0.41893888522702394    0.33751375219020524    0.3203651925746387    0.35043329548129853    0.39658113604900247    
  0.4189895306159504    0.3965810720152988    0.3504333103547958    0.3203651931647795    0.33751373027306486    
  0.41893892214188727    0.5614683553615957    0.712067172400497    0.7774403606662407    0.7079039398420095    
  0.6666960583220018    0.5568078069881724    0.4352031126480412    0.3592496387654872    0.34388805292612773    
  0.37524306104508587    0.42209974053553007    0.4446845414803241    0.42209966229166707    0.3752430568916035    
  0.3438881308556872    0.35924957857145523    0.4352030464142133    0.5568077985866825    0.6666961359407017    
  0.7079039398420095    0.4768537823863971    0.5011554662383042    0.521378748543967    0.4815291462007764    
  0.4291259822739296    0.41831411653488315    0.4496293372215071    0.4930525931183786    0.513155295158182    
  0.4930524316036469    0.4496293477813711    0.4183141586745885    0.4291258804004638    0.4815289971816767    
  0.5213787537680385    0.5011555623474026    0.4768537823863971    0.2356050149548568    0.29964203972480136    
  0.44341011089930543    0.5203089563187575    0.5101735363360217    0.5061315131098661    0.5339393363858939    
  0.5676173923962612    0.5813266652017137    0.5676172979921991    0.5339393160651977    0.5061314187777118    
  0.5101734623237616    0.5203088372684025    0.44341024979001586    0.2996420506629858    0.2356050149548568    
  0.15518125688560297    0.22210508418148053    0.40158342887681786    0.5332519132923451    0.5466684156587519    
  0.5460210497623882    0.5713005926888025    0.598790249169508    0.6086093950601792    0.5987901494884715    
  0.5713006095831593    0.5460210898128771    0.5466683425057962    0.5332520496428715    0.40158337066099764    
  0.22210509119221236    0.15518125688560297    0.23560499719040331    0.29964201482283687    0.44341011757568227    
  0.5203088732706277    0.5101735396621341    0.5061314521524017    0.5339391971670338    0.5676174485923622    
  0.5813266512470762    0.5676172300666505    0.5339393317343939    0.5061314358292052    0.5101735222220904    
  0.5203088049604682    0.4434102519783898    0.2996421116274897    0.23560499719040331    0.47685370646166814    
  0.5011554209766304    0.5213787413230928    0.48152915601548146    0.42912588118101835    0.41831415000562155    
  0.44962930940051915    0.4930525364131907    0.5131551993612963    0.49305249126072664    0.44962932041629194    
  0.41831416705911245    0.42912592610693534    0.48152909020895596    0.5213787124237383    0.5011554698663394    
  0.47685370646166814    0.7079039608898826    0.6666960594980544    0.5568078196548375    0.43520309402072804    
  0.35924959835933534    0.3438880833386385    0.37524303939657566    0.42209973955722563    0.44468456016423336    
  0.42209966928368    0.3752429900755466    0.3438880820096181    0.3592496165227614    0.43520304955854305    
  0.5568078892702444    0.6666961510644213    0.7079039608898826    0.7774403679400466    0.7120672424771624    
  0.5614684548912781    0.41893893907819607    0.33751375800057604    0.3203651916871708    0.3504332678570529    
  0.3965811337612613    0.4189895778740441    0.3965809877736221    0.3504333178777696    0.32036521922899264    
  0.3375137254702159    0.41893890928838656    0.561468458945067    0.7120672481164616    0.7774403679400466    
  0.6902014877109158    0.6580056729501761    0.5643038386031536    0.4506084441804688    0.3747088363447418    
  0.35749551283251146    0.38610035551728694    0.42895729031970675    0.44935955081622275    0.4289572576425751    
  0.3861003509186434    0.35749556220393347    0.3747087961051974    0.450608367739617    0.5643037583280308    
  0.6580056836588419    0.6902014877109158    0.41498009865871766    0.4560079034593135    0.5172469597732015    
  0.5077606352375045    0.4620987979986663    0.44783410988487254    0.4695021875557219    0.49818724146044163    
  0.5103031907709636    0.4981872508727386    0.46950222606198927    0.44783422205228796    0.46209882623818194    
  0.5077605953471016    0.5172469667298111    0.45600793375741944    0.41498009865871766    0.16333612760075272    
  0.2323501315560158    0.41608957630525817    0.5489997808977342    0.5590543822100084    0.5499167861217337    
  0.5565841260020176    0.5586671283326256    0.5558882637431044    0.5586669534845462    0.5565842246276947    
  0.5499167427203929    0.5590543264571608    0.5489997667036828    0.4160896715412746    0.2323500980215458    
  0.16333612760075272    0.0922628365387497    0.1557622555096075    0.36445777148577485    0.56081066143509    
  0.6019394417171361    0.5952323811349858    0.5929550859600482    0.5800412906474879    0.5692132774185749    
  0.580041148753586    0.5929551857613463    0.5952324093723457    0.6019393937519097    0.560810773323619    
  0.36445772290658235    0.1557622679870621    0.0922628365387497    0.25469562899375436    0.3146464409958653    
  0.4435465262568509    0.5074931207131267    0.4980541497653814    0.5032025416403042    0.5469330342546894    
  0.599388904350953    0.6220233270024041    0.5993887744636298    0.5469332024442645    0.5032025360685778    
  0.4980542392129171    0.5074931367426788    0.44354648179617767    0.3146464229407043    0.25469562899375436    
  0.3349690567965859    0.38379805232058595    0.47158776044331574    0.4925822471523486    0.46699379348631126    
  0.4688307878756665    0.5120036423413704    0.566112998528277    0.5903776707370751    0.5661128765985455    
  0.5120036818378121    0.46883071678985483    0.46699388552763915    0.49258211884187697    0.4715878264657086    
  0.3837980982674201    0.3349690567965859    0.5383257372231964    0.5421661149702506    0.5194703518759923    
  0.45404013372433266    0.3995055471372183    0.3948080369442271    0.43580794307519294    0.4911245350116723    
  0.5171949621026835    0.49112448820821103    0.4358079969842112    0.39480804844821477    0.39950549663547846    
  0.45404009503204906    0.5194702700121613    0.542166189034737    0.5383257372231964    0.7063432269392416    
  0.6584494259142887    0.5387216796172174    0.41600028431125147    0.3449391582544948    0.3352824911362275    
  0.3727557797663998    0.42595842701593156    0.45150880198328774    0.42595832816981194    0.3727557729259982    
  0.3352825533181781    0.3449391848452147    0.4160001675225851    0.5387218506903122    0.6584495138089338    
  0.7063432269392416    0.7542490836052169    0.69208026659149    0.5487895060127291    0.41344322361561797    
  0.33746316886824007    0.3246874673400198    0.3589289148103573    0.4087033651942296    0.43260113201777556    
  0.4087033139536487    0.35892892558245304    0.32468746564521644    0.33746316042893093    0.41344326552276467    
  0.5487894044785356    0.6920803320411472    0.7542490836052169    0.6599094417598415    0.6366634027217694    
  0.5612860391600569    0.4604997838431952    0.3898879199860291    0.3750789361274665    0.404082736989617    
  0.4446430314620201    0.4632868036016945    0.44464307799155517    0.4040828537080128    0.3750789865160544    
  0.38988784854901964    0.46049981948568725    0.5612860012773172    0.6366634367190624    0.6599094417598415    
  0.3675621559619493    0.41932068263403305    0.5118020713794268    0.5309455053143111    0.495433090911892    
  0.4803579674335759    0.490988242640065    0.49984470494997524    0.501025698637073    0.49984459538727627    
  0.49098828427212876    0.48035800218593616    0.49543295553598965    0.5309454438040238    0.5118020582107553    
  0.4193207216985232    0.3675621559619493    0.12230551360614304    0.19119609967884377    0.3991862255074411    
  0.5785820284007982    0.6094310471546747    0.5945665294260868    0.5706527477718358    0.5268628809041891    
  0.5015252140729254    0.5268628708448703    0.5706526922284065    0.5945665114999508    0.6094310285534092    
  0.5785819949508036    0.3991863016925519    0.19119606293024288    0.12230551360614304    0.06103287378872174    
  0.11904647267465407    0.3426357817388476    0.591236948336535    0.6592472023240799    0.6439835588773273    
  0.6002216672372411    0.5288360591636656    0.49069440467509384    0.528836020767841    0.6002218430404277    
  0.6439835279047368    0.6592472423859582    0.5912369503099353    0.3426357132773097    0.11904646665335662    
  0.06103287378872174    0.12230547915640033    0.19119607701268407    0.3991862696712888    0.5785820143381349    
  0.6094311682364947    0.5945664951402725    0.5706526311144232    0.5268628452707376    0.5015251333351883    
  0.5268626534403673    0.5706526465364609    0.5945664779750842    0.6094309825297958    0.5785820229369036    
  0.3991862725903408    0.19119610969907813    0.12230547915640033    0.3675621214864579    0.4193207261276168    
  0.5118021073165048    0.5309455254265574    0.49543305385308356    0.48035800952147406    0.4909881642661207    
  0.4998447036899333    0.5010255872416841    0.4998446445327082    0.490988312025376    0.4803580206230804    
  0.4954329463281379    0.5309455142417765    0.5118021259010882    0.4193207616069676    0.3675621214864579    
  0.6599095041851467    0.6366633265080749    0.5612860291043955    0.460499828976174    0.38988792591679045    
  0.37507894513193496    0.4040827770076124    0.4446431301279307    0.46328682681282585    0.44464309028258064    
  0.4040828362566784    0.3750789767623723    0.3898879232265123    0.46049977318237006    0.5612860967199239    
  0.6366634407298506    0.6599095041851467    0.7542492046216639    0.6920802951697462    0.5487894088647458    
  0.4134432589078166    0.3374632186339663    0.32468747604318315    0.358928883526695    0.40870330507482194    
  0.43260121131073503    0.40870321410601157    0.35892888085890284    0.3246875091351851    0.33746318437266415    
  0.41344330829806725    0.5487893947425005    0.6920803321579266    0.7542492046216639    0.706343076592417    
  0.658449509573249    0.5387216474707851    0.41600025241511773    0.3449391558619222    0.33528248174371234    
  0.37275573478786916    0.425958457137699    0.4515088017831216    0.42595844862130483    0.3727557623836596    
  0.3352825376479256    0.34493915568642836    0.41600012837542316    0.5387217719986911    0.6584494972848509    
  0.706343076592417    0.5383256814318003    0.5421661227913714    0.5194702950786033    0.4540401013236882    
  0.3995055921154649    0.39480801632290874    0.43580800930512714    0.4911245142139477    0.5171949364760526    
  0.49112441743987556    0.4358079572161658    0.39480800266994714    0.39950552995302563    0.4540401778377209    
  0.5194702234656141    0.5421661631348865    0.5383256814318003    0.33496909344409836    0.38379811215346643    
  0.47158779145698276    0.49258224483212565    0.46699384338876515    0.4688307919123907    0.5120037103187266    
  0.5661130363451164    0.590377732288084    0.5661128867142452    0.512003692606972    0.468830711624239    
  0.4669938419819977    0.49258210607620984    0.4715879032660928    0.3837980840765041    0.33496909344409836    
  0.25469562899375436    0.3146464409958653    0.4435465262568509    0.5074931207131267    0.4980541497653814    
  0.5032025416403042    0.5469330342546894    0.599388904350953    0.6220233270024041    0.5993887744636298    
  0.5469332024442645    0.5032025360685778    0.4980542392129171    0.5074931367426788    0.44354648179617767    
  0.3146464229407043    0.25469562899375436    0.4906953647911664    0.5015240213487003    0.5010266926691271    
  0.46328575237099856    0.4326021841381375    0.45150768367224225    0.5171959218277709    0.5903765045751972    
  0.6220244787550915    0.5903763579788212    0.5171960845712721    0.4515077093815582    0.4326021784340259    
  0.46328573664790595    0.5010266619912148    0.5015240714727122    0.4906953647911664    0.5288350192902807    
  0.5268638213753449    0.49984364266867415    0.4446440303085013    0.4087024189320104    0.425959344023264    
  0.49112345682247477    0.566114056567394    0.5993877910249314    0.5661139817108429    0.4911234819657288    
  0.42595933289973936    0.40870246747667166    0.44464400254864284    0.4998437495297391    0.5268639216906792    
  0.5288350192902807    0.6002228465392453    0.5706515462857003    0.490989209289183    0.40408176854104544    
  0.35892981498457105    0.3727548556080632    0.4358089212886742    0.5120026587287266    0.5469341957432453    
  0.5120026047816338    0.4358090133736763    0.3727548658638071    0.35892970786511813    0.40408179316928605    
  0.49098913613342454    0.5706515704573488    0.6002228465392453    0.6439825524002022    0.5945676614567874    
  0.4803569892649097    0.37507993269364126    0.3246866985435096    0.33528336420993654    0.3948071610461451    
  0.4688317528775377    0.5032016223026348    0.46883169352737886    0.39480713455800115    0.33528337134669584    
  0.32468674252447516    0.3750798200778688    0.48035707481458    0.5945676700741291    0.6439825524002022    
  0.659248272044626    0.6094299259354717    0.4954340979780944    0.3898869008566708    0.33746405208528407    
  0.34493813990280686    0.399506496760264    0.4669928043076449    0.4980551268320592    0.46699277891095364    
  0.3995064884853485    0.344938150276628    0.3374640421053364    0.38988695021463177    0.49543394267836677    
  0.6094298945558893    0.659248272044626    0.5912357954380821    0.578583169134871    0.530944395655295    
  0.46050077711334264    0.4134423501257905    0.4160011390594447    0.4540391539030572    0.49258324679378324    
  0.507492094357809    0.49258317204808577    0.4540392505954917    0.4160012130858313    0.41344227375218384    
  0.4605008528508476    0.5309444566129129    0.578583169871957    0.5912357954380821    0.342636546922808    
  0.39918528315251706    0.5118031369747094    0.5612849168374722    0.548790601786851    0.5387206121687201    
  0.5194713565750952    0.4715867746810938    0.44354754758961634    0.47158665417832707    0.5194714364275043    
  0.5387206382020912    0.5487905283100492    0.5612849171843696    0.5118031718193777    0.39918534271545775    
  0.342636546922808    0.11904591479203641    0.19119681028940913    0.4193197352653849    0.6366644872053114    
  0.6920792155601075    0.6584505931404452    0.542165105493321    0.38379900342672024    0.314645608141337    
  0.38379899134491896    0.5421651106432308    0.6584506110027265    0.6920792420910875    0.6366645523611296    
  0.4193198014040481    0.19119679629239794    0.11904591479203641    0.06103333714711396    0.12230486971800654    
  0.36756317988400505    0.6599082955312929    0.7542505369238404    0.7063418311227954    0.5383267582661518    
  0.3349681282332105    0.25469647595423667    0.3349680760996221    0.5383268449637537    0.706341839659804    
  0.7542504719658611    0.6599083827844281    0.36756314326477163    0.12230486421228802    0.06103333714711396    
  0.11904589899899574    0.19119679487243407    0.4193197820161642    0.6366644290007271    0.6920792868668737    
  0.658450516713372    0.5421650968679674    0.3837990401425172    0.3146456058804486    0.38379890273681533    
  0.542165023212487    0.6584505272592405    0.6920790783399011    0.6366644415582094    0.41931979012989556    
  0.19119682054111853    0.11904589899899574    0.342636562111367    0.3991852909421498    0.5118031175500185    
  0.5612849769093581    0.5487905827498323    0.5387206807105238    0.5194713809004105    0.47158676770770463    
  0.4435474662127629    0.4715867046874859    0.5194714879400273    0.5387206874376258    0.5487905379713753    
  0.5612849036806582    0.5118032036869293    0.39918529960613836    0.342636562111367    0.5912358047415658    
  0.5785831042900188    0.5309444605570762    0.4605008465110745    0.413442384303837    0.41600112512586734    
  0.45403917706370067    0.4925832406918941    0.5074922081113283    0.49258328015983815    0.4540391956448539    
  0.41600115686479366    0.4134423624931371    0.46050075689632564    0.5309444748606242    0.5785831694187435    
  0.5912358047415658    0.6592482765897842    0.6094298210225947    0.4954339245115717    0.38988695223734504    
  0.3374640731893238    0.3449381662117193    0.3995064974031627    0.4669927322639449    0.4980552178232649    
  0.4669926605951673    0.39950645925109723    0.3449381841919383    0.33746405163610677    0.38988697456298976    
  0.4954339374135894    0.6094299124232809    0.6592482765897842    0.6439825116500293    0.5945677077003574    
  0.48035693847026784    0.37507988209987925    0.3246867377218889    0.3352833746274759    0.3948071177166604    
  0.4688317536556215    0.5032016329046545    0.4688317097746165    0.3948071259028645    0.3352834089280023    
  0.3246867180850209    0.37507982337773643    0.4803570020775676    0.5945677659843518    0.6439825116500293    
  0.6002227429105202    0.5706514992614367    0.4909892077614583    0.4040818218926605    0.35892985618097345    
  0.3727547848130611    0.43580898257949513    0.5120027260140385    0.5469342181123908    0.5120025734528058    
  0.4358089252813967    0.3727548615405622    0.35892976952898537    0.4040818408951018    0.4909892000496078    
  0.5706516311286639    0.6002227429105202    0.5288350553976774    0.5268639153460805    0.4998436908002109    
  0.44464405490373615    0.40870243140964163    0.4259594065985824    0.4911234657464241    0.5661141374363676    
  0.5993877917009751    0.56611403814307    0.49112345515392825    0.42595936771573334    0.4087024529292577    
  0.4446439443106694    0.4998437437940593    0.5268638350661624    0.5288350553976774    0.4906953647911664    
  0.5015240213487003    0.5010266926691271    0.46328575237099856    0.4326021841381375    0.45150768367224225    
  0.5171959218277709    0.5903765045751972    0.6220244787550915    0.5903763579788212    0.5171960845712721    
  0.4515077093815582    0.4326021784340259    0.46328573664790595    0.5010266619912148    0.5015240714727122    
  0.4906953647911664    0.6086081518671151    0.5813276824874627    0.5131541813494617    0.4446854104834102    
  0.4189886711498442    0.44936047961406234    0.5103020265060643    0.555889426977888    0.5692121373839553    
  0.5558892528582048    0.5103020897920449    0.4493604510645095    0.41898858642140796    0.4446854621097038    
  0.5131541331790744    0.5813277728188534    0.6086081518671151    0.5987914876965121    0.5676162126573632    
  0.4930535356813676    0.42209881901316004    0.3965820795817844    0.42895627640922046    0.49818829449424523    
  0.5586659576211148    0.5800423510800472    0.5586659181934713    0.49818839685467803    0.42895634158007323    
  0.396582112732589    0.4220987195712048    0.4930536587310691    0.5676162304194168    0.5987914876965121    
  0.5712993188799939    0.5339403662362    0.4496283049546027    0.375243858880962    0.35043239241361923    
  0.3861013722490466    0.46950118791295625    0.5565852908946448    0.5929540927163703    0.5565852777051893    
  0.4695011476024833    0.38610121994332497    0.35043236078252715    0.3752438741412587    0.44962823452072326    
  0.533940445975731    0.5712993188799939    0.546022318208232    0.5061303626082461    0.41831510895657253    
  0.343887269459869    0.32036618983348136    0.35749460561646423    0.44783517975911336    0.549915768721829    
  0.5952335641597027    0.5499156617037197    0.4478351712521138    0.35749469283818675    0.32036619298089297    
  0.34388720030885744    0.41831522804384547    0.5061304652754485    0.546022318208232    0.5466671350115004    
  0.5101744366311656    0.42912499000552634    0.3592504563142898    0.33751287631371435    0.37470965927858474    
  0.4620977759036159    0.55905540608188    0.6019382503001341    0.5590553179085772    0.4620978224000283    
  0.37470964249803784    0.3375128556908381    0.35925048537100285    0.42912481832638766    0.5101744985353066    
  0.5466671350115004    0.5332530427622751    0.5203078917467953    0.4815300565491205    0.43520216991125205    
  0.4189398875427684    0.45060739537502087    0.5077617120351818    0.5489987353473341    0.5608117929055961    
  0.5489986573332848    0.5077618001164985    0.4506074431573013    0.41893986442763015    0.4352021127079867    
  0.48153011108259813    0.5203078684208299    0.5332530427622751    0.401582417511454    0.4434111310293045    
  0.5213777502745446    0.5568089140347252    0.5614673859304873    0.564304827680552    0.5172459092355544    
  0.4160905165579904    0.3644568765399095    0.4160904457723857    0.5172459432532934    0.5643049471103742    
  0.5614673127375798    0.5568088225908547    0.5213776607614965    0.4434112059459115    0.401582417511454    
  0.222105894026042    0.2996412119867089    0.5011564347431499    0.6666949414544137    0.7120684594322532    
  0.6580044183369412    0.4560088865723234    0.2323493786199494    0.155762956452376    0.2323493264721692    