#     DFTpy    
  CRYSTAL 
    
  PRIMVEC    
  3.848    0.0    0.0    
  0.0    3.848    0.0    
  0.0    0.0    2.12    
  PRIMCOORD    
  4    1    
  Si    0.0    0.0    0.0    
  Si    1.924    1.924    1.06    
  Si    0.0    1.924    0.53    
  Si    1.924    0.0    1.59    
  BEGIN_BLOCK_DATAGRID_3D    
  3d_datagrid_density    
  BEGIN_DATAGRID_3D#0    
  17    17    11    
  0.0    0.0    0.0    
  3.848    0.0    0.0    
  0.0    3.848    0.0    
  0.0    0.0    2.12    
  0.053583832564767946    0.10916404762841433    0.3432862032069608    0.6478696267560027    0.7602941296834709    
  0.7293011781206565    0.6067332939542925    0.4493170174286592    0.3805935092257782    0.44931710935353525    
  0.6067331687180457    0.7293013423998429    0.7602940459942252    0.6478696450660331    0.3432861231000951    
  0.10916399795216582    0.053583832564767946    0.1091640062812969    0.17729137158550073    0.4028503577189376    
  0.636498489141645    0.7045498850330554    0.6794382488796946    0.5957202131226167    0.4785886248291296    
  0.4235014903780865    0.478588651547974    0.5957201826286228    0.6794382050080506    0.7045496978379706    
  0.6364984637840014    0.40285041705007557    0.1772913077171249    0.1091640062812969    0.3432860963882803    
  0.40285044433901945    0.5271190974260952    0.5887717844801238    0.5751880229908422    0.5594318790396196    
  0.5475099076856474    0.5194099796829169    0.5013906048812528    0.51941003225244    0.5475097713026507    
  0.5594319726926155    0.5751880452129844    0.5887718337251036    0.5271190280177523    0.40285039360476715    
  0.3432860963882803    0.6478695588180424    0.6364984553120082    0.588771783386461    0.5106265575490841    
  0.4508371050133934    0.44159193078860765    0.4725232309519082    0.5095618314959172    0.5247576871598231    
  0.5095616857646678    0.4725233076050015    0.44159188994889254    0.4508371062542671    0.510626622975444    
  0.5887717460691088    0.6364985505653337    0.6478695588180424    0.7602940504171262    0.704549802839524    
  0.5751880718910175    0.45083711707932045    0.3825208973177066    0.37803657740092145    0.4224319696184987    
  0.48221643312159357    0.5104571344638741    0.4822164025558917    0.4224320016457753    0.3780365818213955    
  0.38252075225430215    0.4508371970330282    0.5751881448564121    0.7045497439290741    0.7602940504171262    
  0.7293011435739049    0.679438302103458    0.5594317973472203    0.4415919351896658    0.37803650359181595    
  0.3773895083643233    0.4270259556194262    0.493703917983537    0.5253941388958393    0.4937038985821642    
  0.42702593861119276    0.37738949008846495    0.3780364692534622    0.441591886512052    0.5594318848095556    
  0.6794382641168508    0.7293011435739049    0.6067331527473768    0.5957203485213816    0.5475099068060191    
  0.4725232444569374    0.42243194682678625    0.4270258986312111    0.48131800018870446    0.5506272092888562    
  0.5825633109127172    0.550627284952637    0.4813178996290744    0.4270259573505861    0.4224319880045688    
  0.47252337240570513    0.5475098496253483    0.595720180450598    0.6067331527473768    0.4493170231208171    
  0.478588630155724    0.5194099954865475    0.5095618271582839    0.48221639202653066    0.49370405465101347    
  0.5506271652285897    0.6186791320450833    0.6490309916967777    0.61867922714766    0.5506272924737433    
  0.4937039144354432    0.48221640278328765    0.5095617262668349    0.5194100341538215    0.4785886950502195    
  0.4493170231208171    0.38059345672537465    0.42350148277823074    0.5013906438824686    0.5247577095749013    
  0.5104571725828789    0.5253943382315324    0.5825633850420421    0.6490309232970323    0.6782295636701466    
  0.6490310042753836    0.5825633675473114    0.5253942694567161    0.5104570922479839    0.5247577111015332    
  0.5013905867149144    0.4235014383481451    0.38059345672537465    0.44931708976544016    0.4785886694902858    
  0.519409917447608    0.5095617268431452    0.4822163337951845    0.49370395984455556    0.5506272276650738    
  0.6186790848989624    0.6490308889894728    0.6186791008560895    0.5506273227689898    0.49370392599657215    
  0.48221636223991693    0.509561795350533    0.519410039029192    0.47858864404873985    0.44931708976544016    
  0.6067331931558505    0.5957203446142084    0.5475099114655456    0.4725232736325304    0.42243197584145764    
  0.42702590572310706    0.4813179883595823    0.5506272394814915    0.5825633702156572    0.5506273153944672    
  0.4813178078064618    0.42702591142620894    0.4224319870335818    0.4725233186432492    0.5475098878044327    
  0.5957202154215564    0.6067331931558505    0.7293012126150767    0.679438264099001    0.5594318313791824    
  0.4415918180497922    0.37803655438278994    0.37738953520062174    0.4270259469993699    0.49370387795023374    
  0.5253942848057015    0.4937038662515167    0.4270259629994776    0.3773894546949367    0.37803653827312794    
  0.44159195168865323    0.5594319522361131    0.6794383269425923    0.7293012126150767    0.7602940651984404    
  0.7045498181486735    0.5751881166872173    0.4508371742959607    0.3825208501284882    0.3780365806346093    
  0.42243204768503145    0.48221643245721657    0.5104571258340549    0.4822164530637631    0.42243206559010316    
  0.37803658557831366    0.3825208134922996    0.4508372179119794    0.5751881045016014    0.7045497117609092    
  0.7602940651984404    0.6478695366717026    0.636498487002232    0.5887717829640192    0.5106266659281388    
  0.4508371101941831    0.44159192110267703    0.47252327243889786    0.5095617869318149    0.5247575816671698    
  0.5095617946364949    0.47252328553859024    0.44159190901022843    0.4508370461992375    0.5106266048924168    
  0.5887718176198657    0.6364984239041553    0.6478695366717026    0.34328610499531215    0.40285051418079504    
  0.5271189802856372    0.5887717119328341    0.5751880062436426    0.5594319413251653    0.5475099016074442    
  0.519409938064635    0.5013905795255745    0.5194100181359479    0.5475099066972484    0.559431971876014    
  0.5751880695756384    0.5887718733837104    0.5271190633720719    0.40285042039588675    0.34328610499531215    
  0.10916404210696556    0.17729129967047455    0.40285046668379837    0.6364984677887352    0.7045497855414322    
  0.6794382628380579    0.5957202085817963    0.47858859491108313    0.4235015567316072    0.4785886831380342    
  0.5957202054899458    0.67943818940992    0.7045498097632344    0.6364983973103477    0.40285048201419976    
  0.17729135107120525    0.10916404210696556    0.053583832564767946    0.10916404762841433    0.3432862032069608    
  0.6478696267560027    0.7602941296834709    0.7293011781206565    0.6067332939542925    0.4493170174286592    
  0.3805935092257782    0.44931710935353525    0.6067331687180457    0.7293013423998429    0.7602940459942252    
  0.6478696450660331    0.3432861231000951    0.10916399795216582    0.053583832564767946    0.09324660427791293    
  0.1557504026355938    0.36762320907575075    0.5880965738555604    0.6520376574192823    0.6493078689499687    
  0.6377228842047429    0.61269360689538    0.5968305738175079    0.6126936880725936    0.6377228839520533    
  0.6493079151224481    0.6520376148302562    0.5880966035274204    0.3676231954267022    0.15575035931916137    
  0.09324660427791293    0.16315899366041817    0.23189392202355763    0.423058831686353    0.5804183713934744    
  0.6087627719096683    0.6024402289177345    0.6026505416325515    0.5951710884389629    0.5877191448630027    
  0.5951711215909594    0.6026506314206412    0.6024402269632995    0.608762714185956    0.5804183483325832    
  0.4230589183862576    0.23189388230124766    0.16315899366041817    0.4169740355593837    0.46212863277315414    
  0.5388358809799073    0.5481438225157484    0.5107077143908192    0.4968469810874326    0.5167188251033835    
  0.5421063145443382    0.5517789581072071    0.5421063604991062    0.516718694678259    0.49684700761965017    
  0.5107078376957581    0.5481438598372358    0.5388359097940943    0.46212852757880757    0.4169740355593837    
  0.7162217751283212    0.6891547787947369    0.6058080487363762    0.4973240425251672    0.4211857084165511    
  0.4031095307096336    0.43247481273199617    0.4770568689034826    0.49807383920652915    0.47705679697676145    
  0.4324748093954292    0.4031094837701845    0.4211856970968587    0.49732405739373436    0.6058081230400426    
  0.6891548803225364    0.7162217751283212    0.8224242886084856    0.7594358885645959    0.6116869450697954    
  0.4671521860049513    0.38257728883895475    0.3645120236582386    0.3961048192223582    0.445701797055997    
  0.4701146476572048    0.44570179566286083    0.396104863105335    0.364512079623415    0.3825771655597247    
  0.467152296297279    0.6116869091883396    0.7594356855524016    0.8224242886084856    0.7393016582687022    
  0.7022804962292483    0.6002751109890766    0.48190128774843527    0.4052314074404733    0.3891815323702417    
  0.4219334166793844    0.47181301891625443    0.4958643164782709    0.4718130836223091    0.4219334673071686    
  0.3891814497627909    0.4052313837539055    0.48190123377622757    0.6002751806331595    0.7022803995196194    
  0.7393016582687022    0.48287144691231937    0.5121802135756626    0.5477299272816794    0.5234682516678926    
  0.4772503782266887    0.4671891048350242    0.49886387257203907    0.542204250296879    0.56153581272946    
  0.5422043466746965    0.498863732806399    0.4671892185418838    0.47725037344969945    0.5234683196451414    
  0.5477299876375803    0.5121801544149195    0.48287144691231937    0.23509185925178033    0.30024152559094347    
  0.4551466831692191    0.5552986771181996    0.5600745480965384    0.5593483273179658    0.5849108640933465    
  0.6139857890491972    0.624979924134404    0.6139858813780237    0.5849109107626272    0.5593482787415403    
  0.5600745417164753    0.5552986411992863    0.4551466228539745    0.30024158859329025    0.23509185925178033    
  0.15524936519770555    0.22184906985906558    0.40855591932304847    0.5646747485343349    0.5972894479762497    
  0.6012393509319373    0.6223903804040173    0.6432656013830776    0.6499403403630033    0.6432656319235215    
  0.6223903883948195    0.6012394844408498    0.5972892556833237    0.5646747860823216    0.408555929327462    
  0.22184900043791939    0.15524936519770555    0.23509187310993898    0.3002415794431782    0.4551466137553928    
  0.55529861279381    0.5600745221295449    0.5593483349070573    0.5849108613967163    0.6139857985640912    
  0.624979827937856    0.61398577510929    0.5849109989034154    0.5593482822673358    0.5600744580322808    
  0.5552986725559879    0.45514666976370993    0.3002415546410199    0.23509187310993898    0.4828714839990927    
  0.5121801306310326    0.5477299975404848    0.5234682063277631    0.47725032609586776    0.46718907298967954    
  0.4988638027571736    0.542204272581566    0.5615358181584602    0.5422043893403411    0.4988637003372657    
  0.4671891543729001    0.4772504655723619    0.523468195061832    0.5477299669634258    0.5121800060152889    
  0.4828714839990927    0.7393016871512664    0.7022803664515749    0.6002751744595106    0.48190124517478533    
  0.4052314584111789    0.3891815439477313    0.42193347838935685    0.47181299709985486    0.49586443661684776    
  0.47181300970155104    0.421933375164271    0.3891814783819882    0.40523145485159984    0.4819012983658321    
  0.6002751732357354    0.7022804232397171    0.7393016871512664    0.8224242533282966    0.759435857718506    
  0.6116869546556064    0.4671521817847519    0.38257723291950624    0.3645120081390039    0.3961048128229173    
  0.4457018041495443    0.4701146309124339    0.4457018429756055    0.39610484965189846    0.3645119995588295    
  0.3825772027126525    0.4671522830718896    0.6116868590283547    0.759435692410475    0.8224242533282966    
  0.7162218117611405    0.6891548875899733    0.6058080899381453    0.49732402833826694    0.4211857046097515    
  0.40310955659085645    0.432474893528534    0.47705679896242875    0.49807384040733804    0.4770568115776902    
  0.4324748231593399    0.4031094814924758    0.4211856780054812    0.49732408625877045    0.6058081389912119    
  0.6891548409003843    0.7162218117611405    0.41697398861600604    0.46212865551334315    0.5388358893110254    
  0.5481438269133146    0.5107076673687994    0.496847025847296    0.5167188152308894    0.5421063137727193    
  0.551778976734256    0.5421063788685151    0.5167187441787149    0.49684702887453347    0.510707746174266    
  0.548143920319613    0.5388358784759819    0.4621285885364543    0.41697398861600604    0.16315901584974907    
  0.23189387159444674    0.42305888236392425    0.5804183916042448    0.6087628358393365    0.6024402933956176    
  0.6026506073027538    0.5951710243282292    0.5877192282202068    0.5951711623375378    0.6026506012492142    
  0.6024401780273749    0.6087628097088993    0.5804184252254078    0.42305894601559274    0.2318939244387955    
  0.16315901584974907    0.09324660427791293    0.1557504026355938    0.36762320907575075    0.5880965738555604    
  0.6520376574192823    0.6493078689499687    0.6377228842047429    0.61269360689538    0.5968305738175079    
  0.6126936880725936    0.6377228839520533    0.6493079151224481    0.6520376148302562    0.5880966035274204    
  0.3676231954267022    0.15575035931916137    0.09324660427791293    0.25460078959317195    0.3160864487375624    
  0.4569879550823434    0.5437781557911943    0.5490016644284895    0.5583447434493568    0.6011556864839747    
  0.6512390794635032    0.6726083476884803    0.6512391196592091    0.6011556962244285    0.5583448652919107    
  0.549001643988081    0.5437781721132653    0.4569879425001765    0.31608639758772794    0.25460078959317195    
  0.336182292387362    0.38826649594726936    0.49046655910290565    0.5316311939146299    0.5168921301844683    
  0.5217810660614601    0.5653182851504547    0.6184693664325118    0.6417280763746284    0.6184693507928299    
  0.5653182708418253    0.5217810963057063    0.5168920264826302    0.531631276653002    0.49046667350859574    
  0.3882664698941075    0.336182292387362    0.5518609008381807    0.5610173491894416    0.5518352531503339    
  0.49770542247958255    0.44706191228688286    0.4431801412908439    0.48598135454659036    0.5434151708752062    
  0.569926896908727    0.5434152752410859    0.48598133717438685    0.443180218430597    0.44706190528123435    
  0.49770544575034464    0.5518352564439727    0.5610172197055813    0.5518609008381807    0.7448697528638635    
  0.6995614364211266    0.584300859406919    0.46261048601750693    0.3904233218109174    0.3803920424777506    
  0.41988175218185114    0.4769827333137834    0.5045196824654196    0.4769826824419076    0.41988177814168826    
  0.38039197027675326    0.39042332458469853    0.46261050110794316    0.584300865188731    0.6995613298531497    
  0.7448697528638635    0.8004222510903085    0.7399962841745181    0.5987770654638007    0.461411634705216    
  0.3825424109490122    0.3691467749470506    0.4050681751990037    0.4580706369777397    0.48375147432119925    
  0.45807065466298796    0.405068188025257    0.3691468007952362    0.38254233095099877    0.4614117084004047    
  0.5987770247789266    0.739996131801938    0.8004222510903085    0.6831529756781666    0.6652299114889485    
  0.6013443393317652    0.5072233898697348    0.43689275045384823    0.42109464984361517    0.45002139558454946    
  0.49054308567155275    0.5086887292911805    0.4905430649494901    0.4500214707946746    0.42109457667100697    
  0.4368927625219399    0.507223433942788    0.6013445351561776    0.6652298618021678    0.6831529756781666    
  0.36809983544233477    0.42315067588145316    0.5304755322009872    0.5703918827544205    0.5445274781944023    
  0.528920161356595    0.5346625350136088    0.5363670252235269    0.5334043364379093    0.5363671601339917    
  0.5346623814927975    0.5289203028340369    0.5445274486844502    0.5703919538933504    0.5304756023557865    
  0.423150575833623    0.36809983544233477    0.12272337892708168    0.19076120918301936    0.40355084625161586    
  0.6075238978431583    0.6587415756711557    0.6449218813861022    0.6090152674740383    0.5510954114937819    
  0.519980635920009    0.5510955375606873    0.6090152504894524    0.6449216895971379    0.658741654210261    
  0.6075239083854604    0.40355090968554846    0.19076122384190564    0.12272337892708168    0.06251673422320579    
  0.11953442971647273    0.34390954676577296    0.6155815668262107    0.7084649394351594    0.6949931304366559    
  0.6355148214466059    0.5477836631262754    0.5040948479680396    0.547783695724305    0.6355146805962808    
  0.6949931811059118    0.7084647936935283    0.6155815745158464    0.3439094716533569    0.11953440405293018    
  0.06251673422320579    0.12272335172633991    0.19076124726888133    0.4035507877980901    0.607523803384234    
  0.6587416454616921    0.6449218525712127    0.6090152620013394    0.5510954077208311    0.5199805708657051    
  0.551095510270028    0.6090153390715529    0.6449217536811541    0.6587416369217852    0.6075238491278405    
  0.40355089173861963    0.19076121604729768    0.12272335172633991    0.3680998619324788    0.42315066582440786    
  0.530475601418655    0.5703919481227476    0.5445274472494246    0.5289201150973049    0.5346624597203506    
  0.5363670573998149    0.5334043872699631    0.5363671668394329    0.5346623491780526    0.5289201619474685    
  0.5445275004595479    0.5703919343608616    0.5304755643812519    0.42315052557527166    0.3680998619324788    
  0.6831530310998758    0.665229879293179    0.6013444474406943    0.5072233234169135    0.4368928144337484    
  0.42109467215609386    0.4500214477996686    0.49054304934666787    0.5086888863933579    0.4905429679615708    
  0.45002140385004413    0.42109462585885116    0.43689280626013666    0.5072234070781791    0.6013444440711709    
  0.6652298182892799    0.6831530310998758    0.800422299053608    0.7399962525607557    0.5987769975056557    
  0.4614117004117571    0.38254238237429644    0.36914685049517876    0.4050682080658527    0.4580705954855243    
  0.48375139219112834    0.45807062776123303    0.40506825013649167    0.36914681217005874    0.38254234485344957    
  0.46141174832860704    0.5987769633141701    0.7399961249585627    0.800422299053608    0.7448697343994594    
  0.6995613069821912    0.5843008681164996    0.46261041047313856    0.39042331087122345    0.3803919920275906    
  0.41988172667610274    0.4769827370071445    0.5045195804496241    0.4769827215618133    0.41988185619353585    
  0.3803920098640354    0.39042329924926805    0.46261045865443395    0.5843008883191305    0.6995613406667948    
  0.7448697343994594    0.5518608675596399    0.5610173565633891    0.5518352038007462    0.4977053464960544    
  0.4470619293364104    0.44318028831701645    0.48598131218099483    0.5434151597216983    0.5699268455190514    
  0.5434151962736828    0.48598128557867726    0.4431802127224742    0.44706192321524457    0.49770546422355283    
  0.5518352032496401    0.5610172288331433    0.5518608675596399    0.3361823203666071    0.3882663935432818    
  0.4904666823643903    0.5316312629179486    0.5168921207369095    0.5217811497389983    0.56531831493297    
  0.6184692389016493    0.6417281835079149    0.6184693671027386    0.5653183095874765    0.5217811035525023    
  0.516892108791312    0.5316312749078312    0.49046670719947444    0.38826644200149696    0.3361823203666071    
  0.25460078959317195    0.3160864487375624    0.4569879550823434    0.5437781557911943    0.5490016644284895    
  0.5583447434493568    0.6011556864839747    0.6512390794635032    0.6726083476884803    0.6512391196592091    
  0.6011556962244285    0.5583448652919107    0.549001643988081    0.5437781721132653    0.4569879425001765    
  0.31608639758772794    0.25460078959317195    0.5040947930638403    0.5199805956758361    0.5334043827690852    
  0.508688924910085    0.48375139107565324    0.5045196387381058    0.5699269060857499    0.6417281258303129    
  0.6726083104276063    0.6417281166047731    0.5699269162844591    0.5045197454983836    0.48375138137725454    
  0.5086888868299104    0.5334044985890255    0.5199805740739895    0.5040947930638403    0.5477835889382627    
  0.5510956049806931    0.5363669807693741    0.4905430078583301    0.45807062836333373    0.47698274785862316    
  0.5434151791314276    0.6184693903741276    0.6512390484876796    0.6184693175208085    0.5434152098560794    
  0.47698265974909615    0.45807054768531413    0.49054301525648847    0.536367120730429    0.5510955263870737    
  0.5477835889382627    0.6355148113717949    0.6090153747808442    0.5346623917981012    0.45002135974901347    
  0.4050682293996758    0.4198817448247809    0.4859813951442487    0.5653182258569077    0.6011556996210001    
  0.5653183233715208    0.48598128194896856    0.4198818101374577    0.4050682414548315    0.450021483422161    
  0.5346624368429759    0.6090152496333961    0.6355148113717949    0.6949930346738362    0.6449218433481578    
  0.5289201318008023    0.4210946791832605    0.36914672978863167    0.380392044502746    0.4431801662629436    
  0.5217810986744191    0.5583447472938379    0.5217810923540541    0.4431802278251564    0.38039196844598044    
  0.3691467202400906    0.42109465551656783    0.5289201818425103    0.6449217375348051    0.6949930346738362    
  0.7084648786690904    0.6587417463450562    0.5445275394432358    0.4368928004343023    0.3825424299748905    
  0.3904233887662652    0.4470619426668766    0.5168922139487905    0.5490017253238154    0.5168921551880752    
  0.4470618658184348    0.3904234055680271    0.3825423126183091    0.4368928669375224    0.544527516136703    
  0.6587415605495713    0.7084648786690904    0.6155814670804504    0.6075238460365879    0.5703917589756061    
  0.5072234265762477    0.4614115752669229    0.4626104320602075    0.49770543612022955    0.5316313236969757    
  0.5437779737303275    0.5316313032281539    0.4977054168557604    0.46261040035115264    0.4614116030090695    
  0.5072234317302134    0.5703919749432216    0.6075238594222031    0.6155814670804504    0.34390940719391505    
  0.4035509946068687    0.5304755725603959    0.601344497373753    0.5987769642030193    0.5843008406215676    
  0.5518352708293343    0.49046661791925306    0.45698782389231457    0.49046675874205253    0.5518351928986626    
  0.584300959752183    0.5987769964052261    0.601344579740914    0.530475594024361    0.40355088408347245    
  0.34390940719391505    0.11953443568663295    0.19076123346790996    0.4231505656991849    0.6652299225072495    
  0.7399961395705998    0.6995614313822882    0.5610172195501383    0.388266404856034    0.31608648449399646    
  0.3882664607075892    0.5610172424563009    0.6995613669918819    0.7399961830416351    0.6652298595504754    
  0.42315064422426824    0.19076120392529275    0.11953443568663295    0.06251673091318014    0.12272338031198979    
  0.3680999197200809    0.6831531313367011    0.8004223322131272    0.7448698728841602    0.5518608895823174    
  0.3361823891686374    0.2546008140060725    0.33618237494187175    0.5518608083847801    0.744869927087937    
  0.8004221867803499    0.6831530835755386    0.36809991135007925    0.12272337973445938    0.06251673091318014    
  0.1195343935290885    0.19076125160175872    0.42315053029205585    0.6652298871986067    0.7399962010561317    
  0.6995614058106269    0.5610171960257634    0.3882663497455256    0.3160864308875128    0.3882663781386451    
  0.5610173951555827    0.6995612562834904    0.7399962219158084    0.6652298959119131    0.4231506139403583    
  0.19076121037565186    0.1195343935290885    0.34390945186648664    0.40355094363231986    0.530475592277737    
  0.6013444795633232    0.598776941316349    0.5843008829737308    0.5518353044433516    0.49046669230538387    
  0.4569879456047302    0.49046675693618375    0.5518350945992406    0.584300869986271    0.5987770413475444    
  0.601344539672211    0.5304755548089304    0.4035508420928139    0.34390945186648664    0.6155814750495652    
  0.6075238746504472    0.5703918081139405    0.5072233529263037    0.4614116488409043    0.4626104294852324    
  0.4977053672339256    0.5316312872973199    0.543778012378056    0.5316312044498381    0.49770542170700055    
  0.4626103972541096    0.46141166467910455    0.5072233844205456    0.57039187276172    0.6075238592779382    
  0.6155814750495652    0.7084648507656166    0.6587417320524177    0.5445274608249265    0.4368928637536089    
  0.38254237375879346    0.3904234145755824    0.44706196426761924    0.5168921228992364    0.5490016990008662    
  0.5168921500234346    0.447061915162558    0.3904234013161349    0.38254233138213845    0.43689290280314874    
  0.5445274149143627    0.6587415457006623    0.7084648507656166    0.6949929923108867    0.6449218325458262    
  0.5289201576521655    0.42109463237224454    0.3691467261582576    0.3803919793513293    0.4431801875349349    
  0.5217811013164052    0.5583446733413918    0.5217811099965689    0.44318024956483315    0.38039199498386905    
  0.36914669011145657    0.42109467820074425    0.5289201666759924    0.6449217875943922    0.6949929923108867    
  0.6355147369405499    0.6090153436332789    0.5346624916515005    0.4500214022577974    0.405068149912436    
  0.41988184203159035    0.4859813678843174    0.5653183071726757    0.601155630879558    0.5653183022948444    
  0.4859813678903048    0.4198818307129374    0.40506821443664204    0.4500214777466443    0.5346624453769389    
  0.6090152542173498    0.6355147369405499    0.5477836272880279    0.5510954890492582    0.5363670567382579    
  0.49054294249657054    0.4580706294625946    0.4769827837325308    0.5434152756985358    0.6184692409645299    
  0.6512391280438274    0.6184693986182502    0.5434151893693534    0.47698265444255944    0.45807063577150026    
  0.49054300972416237    0.5363670744486376    0.5510955667719274    0.5477836272880279    0.5040947930638403    
  0.5199805956758361    0.5334043827690852    0.508688924910085    0.48375139107565324    0.5045196387381058    
  0.5699269060857499    0.6417281258303129    0.6726083104276063    0.6417281166047731    0.5699269162844591    
  0.5045197454983836    0.48375138137725454    0.5086888868299104    0.5334044985890255    0.5199805740739895    
  0.5040947930638403    0.6499403457732909    0.6249798922173504    0.561535869534372    0.4958645149048111    
  0.4701146184082577    0.4980738061948753    0.5517789591828242    0.5877191387036392    0.5968305472738659    
  0.5877191807540759    0.5517789513293977    0.49807388755096094    0.47011457495967557    0.4958644527986139    
  0.561535899961437    0.6249798051017929    0.6499403457732909    0.6432655305994573    0.6139859191080866    
  0.5422042930327615    0.471812964794935    0.4457018250490368    0.4770568770260262    0.5421063131160924    
  0.595171057653736    0.6126936197080547    0.5951710644060288    0.5421063709672995    0.4770567941988057    
  0.4457017763554802    0.47181298287824236    0.5422043141169691    0.6139858739702809    0.6432655305994573    
  0.6223904181644471    0.5849109463810942    0.4988638313152333    0.4219333651609105    0.3961048002334442    
  0.43247483713961477    0.5167188173416432    0.6026505279908481    0.6377229349082401    0.6026505562070958    
  0.5167187812100738    0.43247483233030903    0.3961048684471588    0.4219334794876588    0.49886382753614567    
  0.5849108705586676    0.6223904181644471    0.6012393294319653    0.5593483721330126    0.46718905385923243    
  0.3891815442163991    0.36451194424117894    0.40310957087243565    0.4968469473179592    0.6024402299904011    
  0.649307861587268    0.6024402159904757    0.49684698974477404    0.40310948084960496    0.36451193727055753    
  0.38918154648802017    0.46718913792511424    0.5593483588216086    0.6012393294319653    0.5972894066899862    
  0.5600745882385803    0.47725048058623537    0.405231458354005    0.38257727608201775    0.4211857936298358    
  0.5107078222783056    0.6087627406104843    0.6520376640957465    0.608762803375758    0.5107078616104084    
  0.4211858064963953    0.3825771863736096    0.4052315234511716    0.4772504386499395    0.5600745251510785    
  0.5972894066899862    0.5646746129626511    0.5552987218719841    0.5234681757367616    0.4819012779674032    
  0.4671521167328319    0.49732404065736957    0.5481438326546935    0.5804184332159597    0.588096501862588    
  0.5804184940793471    0.5481438750309753    0.4973240046037458    0.4671520802932864    0.4819012678353713    
  0.5234682620494406    0.5552986450852198    0.5646746129626511    0.4085558780771215    0.4551467494087004    
  0.5477298810988926    0.600275143893875    0.6116868254822101    0.6058080859977902    0.5388360205762426    
  0.42305881450240823    0.36762313094183846    0.4230588857771614    0.5388358654905304    0.6058081409214194    
  0.6116869014030274    0.6002752461114781    0.5477299776287479    0.45514667513300555    0.4085558780771215    
  0.22184902147475696    0.3002415216265332    0.5121800908900772    0.7022804410576359    0.7594358095663567    
  0.6891548656461589    0.4621285713221417    0.23189383737838853    0.15575041017228586    0.23189390550124803    
  0.4621286291721663    0.6891547788427543    0.7594357841775817    0.7022804556913158    0.5121800826609313    
  0.30024158918557187    0.22184902147475696    0.1552493616601963    0.23509190856027362    0.48287150866533957    