
     Program PWSCF v.6.5 starts on  2May2024 at 17:20:24 

     This program is part of the open-source Quantum ESPRESSO suite
     for quantum simulation of materials; please cite
         "P. Giannozzi et al., J. Phys.:Condens. Matter 21 395502 (2009);
         "P. Giannozzi et al., J. Phys.:Condens. Matter 29 465901 (2017);
          URL http://www.quantum-espresso.org", 
     in publications or presentations arising from this work. More details at
     http://www.quantum-espresso.org/quote

     Serial version
     Reading input from Si.in
Warning: card &IONS ignored
Warning: card / ignored
Warning: card &CELL ignored
Warning: card / ignored
Warning: card &FCP ignored
Warning: card / ignored
Warning: card &RISM ignored
Warning: card / ignored

     Current dimensions of program PWSCF are:
     Max number of different atomic species (ntypx) = 10
     Max number of k-points (npk) =  40000
     Max angular momentum in pseudopotentials (lmaxx) =  3
     Message from routine setup:
     using ibrav=0 with symmetry is DISCOURAGED, use correct ibrav instead

     G-vector sticks info
     --------------------
     sticks:   dense  smooth     PW     G-vecs:    dense   smooth      PW
     Sum        3605    3605    981               163551   163551   23127



     bravais-lattice index     =            0
     lattice parameter (alat)  =      13.7761  a.u.
     unit-cell volume          =    2614.4431 (a.u.)^3
     number of atoms/cell      =            1
     number of atomic types    =            1
     number of electrons       =         4.00
     number of Kohn-Sham states=            6
     kinetic-energy cutoff     =      60.0000  Ry
     charge density cutoff     =     240.0000  Ry
     convergence threshold     =      1.0E-06
     mixing beta               =       0.7000
     number of iterations used =            8  plain     mixing
     Exchange-correlation= LDA
                           (   1   1   0   0   0   0   0)

     celldm(1)=  13.776104  celldm(2)=   0.000000  celldm(3)=   0.000000
     celldm(4)=   0.000000  celldm(5)=   0.000000  celldm(6)=   0.000000

     crystal axes: (cart. coord. in units of alat)
               a(1) = (   1.000000   0.000000   0.000000 )  
               a(2) = (   0.000000   1.000000   0.000000 )  
               a(3) = (   0.000000   0.000000   1.000000 )  

     reciprocal axes: (cart. coord. in units 2 pi/alat)
               b(1) = (  1.000000  0.000000  0.000000 )  
               b(2) = (  0.000000  1.000000  0.000000 )  
               b(3) = (  0.000000  0.000000  1.000000 )  


     PseudoPot. # 1 for Si read from file:
     /home/vr371/Projects/PP/ofpp/EAC/upf/blps/si.lda.upf
     MD5 check sum: 946fc5a8d23174f015515f8139e499ed
     Pseudo is Norm-conserving, Zval =  4.0
     DFTpy
     Using radial grid of 1601 points,  1 beta functions with: 
                l(1) =   0

     atomic species   valence    mass     pseudopotential
        Si             4.00    28.08000     Si( 1.00)

     48 Sym. Ops., with inversion, found



   Cartesian axes

     site n.     atom                  positions (alat units)
         1           Si  tau(   1) = (   0.0000000   0.0000000   0.0000000  )

     number of k points=    10  Gaussian smearing, width (Ry)=  0.0050
                       cart. coord. in units 2pi/alat
        k(    1) = (   0.0833333   0.0833333   0.0833333), wk =   0.0740741
        k(    2) = (   0.0833333   0.0833333   0.2500000), wk =   0.2222222
        k(    3) = (   0.0833333   0.0833333   0.4166667), wk =   0.2222222
        k(    4) = (   0.0833333   0.2500000   0.2500000), wk =   0.2222222
        k(    5) = (   0.0833333   0.2500000   0.4166667), wk =   0.4444444
        k(    6) = (   0.0833333   0.4166667   0.4166667), wk =   0.2222222
        k(    7) = (   0.2500000   0.2500000   0.2500000), wk =   0.0740741
        k(    8) = (   0.2500000   0.2500000   0.4166667), wk =   0.2222222
        k(    9) = (   0.2500000   0.4166667   0.4166667), wk =   0.2222222
        k(   10) = (   0.4166667   0.4166667   0.4166667), wk =   0.0740741

     Dense  grid:   163551 G-vectors     FFT dimensions: (  72,  72,  72)

     Estimated max dynamical RAM per process >     129.69 MB

     Initial potential from superposition of free atoms

     starting charge    3.99936, renormalised to    4.00000

     negative rho (up, down):  7.509E-07 0.000E+00
     Starting wfcs are random

     total cpu time spent up to now is        4.1 secs

     Self-consistent Calculation

     negative rho (up, down):  7.509E-07 0.000E+00

     iteration #  1     ecut=    60.00 Ry     beta= 0.70
     Davidson diagonalization with overlap
     ethr =  1.00E-02,  avg # of iterations =  7.0

     Threshold (ethr) on eigenvalues was too large:
     Diagonalizing with lowered threshold

     Davidson diagonalization with overlap
     ethr =  3.50E-05,  avg # of iterations =  6.6

     total cpu time spent up to now is       12.4 secs

     total energy              =      -7.64336605 Ry
     Harris-Foulkes estimate   =      -7.64389255 Ry
     estimated scf accuracy    <       0.00100062 Ry

     iteration #  2     ecut=    60.00 Ry     beta= 0.70
     Davidson diagonalization with overlap
     ethr =  2.50E-05,  avg # of iterations =  2.0

     total cpu time spent up to now is       14.3 secs

     total energy              =      -7.64353278 Ry
     Harris-Foulkes estimate   =      -7.64353583 Ry
     estimated scf accuracy    <       0.00001099 Ry

     iteration #  3     ecut=    60.00 Ry     beta= 0.70
     Davidson diagonalization with overlap
     ethr =  2.75E-07,  avg # of iterations =  6.9

     total cpu time spent up to now is       17.0 secs

     End of self-consistent calculation

          k = 0.0833 0.0833 0.0833 ( 20467 PWs)   bands (ev):

   -11.3208  -3.4603  -3.4583  -3.4583  -0.5737   1.3792

          k = 0.0833 0.0833 0.2500 ( 20499 PWs)   bands (ev):

   -11.3202  -3.5038  -3.4553  -3.4542  -0.3686   1.1293

          k = 0.0833 0.0833 0.4167 ( 20505 PWs)   bands (ev):

   -11.3196  -3.5461  -3.4511  -3.4501  -0.0534   0.6807

          k = 0.0833 0.2500 0.2500 ( 20517 PWs)   bands (ev):

   -11.3196  -3.5008  -3.4958  -3.4507  -0.1629   1.1918

          k = 0.0833 0.2500 0.4167 ( 20540 PWs)   bands (ev):

   -11.3191  -3.5395  -3.4928  -3.4467   0.1648   0.7595

          k = 0.0833 0.4167 0.4167 ( 20546 PWs)   bands (ev):

   -11.3185  -3.5334  -3.5323  -3.4428   0.5011   0.8054

          k = 0.2500 0.2500 0.2500 ( 20513 PWs)   bands (ev):

   -11.3191  -3.4975  -3.4908  -3.4908   0.0415   1.3536

          k = 0.2500 0.2500 0.4167 ( 20531 PWs)   bands (ev):

   -11.3185  -3.5333  -3.4897  -3.4857   0.3781   0.8742

          k = 0.2500 0.4167 0.4167 ( 20524 PWs)   bands (ev):

   -11.3179  -3.5275  -3.5264  -3.4827   0.7033   0.9982

          k = 0.4167 0.4167 0.4167 ( 20531 PWs)   bands (ev):

   -11.3174  -3.5219  -3.5204  -3.5204   0.9539   1.1875

     the Fermi energy is    -3.5184 ev

!    total energy              =      -7.64353665 Ry
     Harris-Foulkes estimate   =      -7.64353652 Ry
     estimated scf accuracy    <       0.00000041 Ry

     The total energy is the sum of the following terms:

     one-electron contribution =      -5.16547750 Ry
     hartree contribution      =       2.74243361 Ry
     xc contribution           =      -1.91901357 Ry
     ewald contribution        =      -3.29532655 Ry
     smearing contrib. (-TS)   =      -0.00615264 Ry

     convergence has been achieved in   3 iterations

 Energies determined by pw2casino tool
 -------------------------------------
 Kinetic energy      1.2500565154678660       au  =     2.5001130309357320       Ry
 Local energy       -3.8327952678651376       au  =    -7.6655905357302752       Ry
 Non-Local energy    0.0000000000000000       au  =     0.0000000000000000       Ry
 Ewald energy       -1.6476632768008681       au  =    -3.2953265536017362       Ry
 xc contribution   -0.95950678420843338       au  =    -1.9190135684168668       Ry
 hartree energy      1.3712168071969570       au  =     2.7424336143939141       Ry
 Smearing (-TS)     -3.0763189708615897E-003  au  =    -6.1526379417231793E-003  Ry
 Total energy       -3.8217683251804382       au  =    -7.6435366503608764       Ry
 -------------------------------------
 Total energy0      -3.8217683251804777       au  =    -7.6435366503609554       Ry
 External energy0    0.0000000000000000       au  =     0.0000000000000000       Ry
 -------------------------------------


     Writing output data file ./si.save/
