#     DFTpy    
  CRYSTAL 
    
  PRIMVEC    
  3.329656125503105    -1.829378e-10    3.4674539999999995e-10    
  -1.829378e-10    3.3296561253096284    1.670787e-10    
  6.336335e-10    3.05366e-10    6.09999455276068    
  PRIMCOORD    
  4    1    
  Si    1.664828062688116    1.6648280635710218    1.8744932482359153    
  Si    6.173612007246626e-10    -5.713595626320533e-10    1.1755040260939014    
  Si    9.46886973865075e-11    4.3151291338642566e-10    4.9244905232068135    
  Si    1.664828063187269    1.6648280623062472    4.225501308498551    
  BEGIN_BLOCK_DATAGRID_3D    
  3d_datagrid_density    
  BEGIN_DATAGRID_3D#0    
  33    33    61    
  0.0    0.0    0.0    
  3.3296561379227914    -1.829400006823697e-10    3.467500012933842e-10    
  -1.829400006823697e-10    3.3296561377293115    1.6708000062321163e-10    
  6.336300023634521e-10    3.05370001139036e-10    6.099994575513777    
  -6.755505708726919    -6.755785784716805    -6.756560340699826    -6.757653543924619    -6.7588334198578375    
  -6.759875382372293    -6.760611631949807    -6.760955015166131    -6.760899397160448    -6.760504021607031    
  -6.759869201763873    -6.759110801515872    -6.758340143928701    -6.757651608780648    -6.7571161479137    
  -6.75677944549047    -6.7566649318724314    -6.75677944549047    -6.7571161479137    -6.75765160878065    
  -6.758340143928701    -6.759110801515872    -6.759869201763872    -6.760504021607031    -6.760899397160448    
  -6.760955015166129    -6.760611631949807    -6.759875382372295    -6.7588334198578375    -6.757653543924619    
  -6.756560340699826    -6.755785784716805    -6.755505708726919    -6.755785784716805    -6.756055524943054    
  -6.756800883864083    -6.757850984041485    -6.758980721265029    -6.75997270735766    -6.760665100218894    
  -6.760974329380534    -6.760895193041034    -6.760485865564258    -6.759844648533778    -6.759085239184525    
  -6.758316912932762    -6.757632171292409    -6.7571004040304725    -6.756766248920863    -6.75665262888066    
  -6.756766248920863    -6.757100404030471    -6.757632171292409    -6.758316912932762    -6.759085239184525    
  -6.75984464853378    -6.760485865564258    -6.760895193041034    -6.760974329380534    -6.760665100218896    
  -6.75997270735766    -6.758980721265029    -6.757850984041485    -6.756800883864083    -6.756055524943054    
  -6.755785784716805    -6.756560340699826    -6.756800883864082    -6.757463928544215    -6.758392928191464    
  -6.759382356024056    -6.760234971182345    -6.760805367128151    -6.76101982310007    -6.76087577635132    
  -6.76042851084961    -6.759770683087403    -6.759009777323053    -6.758249183874015    -6.757576073964192    
  -6.757055437677241    -6.756728935913225    -6.756618002703454    -6.756728935913225    -6.757055437677241    
  -6.757576073964192    -6.758249183874015    -6.759009777323053    -6.759770683087403    -6.76042851084961    
  -6.76087577635132    -6.76101982310007    -6.760805367128151    -6.760234971182345    -6.759382356024056    
  -6.758392928191462    -6.757463928544215    -6.756800883864082    -6.756560340699826    -6.757653543924619    
  -6.757850984041484    -6.758392928191465    -6.759144862636727    -6.759930668495185    -6.760582453369794    
  -6.760978091695009    -6.76105766182794    -6.76082244078747    -6.760323747070443    -6.759645993987663    
  -6.758887231971522    -6.758141835324967    -6.757488951557816    -6.75698704188379    -6.756673302734876    
  -6.75656684576551    -6.756673302734876    -6.75698704188379    -6.757488951557816    -6.758141835324967    
  -6.758887231971523    -6.759645993987663    -6.760323747070443    -6.76082244078747    -6.76105766182794    
  -6.760978091695009    -6.760582453369794    -6.759930668495185    -6.759144862636727    -6.758392928191465    
  -6.757850984041484    -6.757653543924619    -6.7588334198578375    -6.758980721265029    -6.759382356024056    
  -6.759930668495185    -6.76048460740446    -6.760910121270333    -6.761110968447815    -6.761042241859679    
  -6.760709501642539    -6.760159778444668    -6.759467943381653    -6.758720563414184    -6.758000814941866    
  -6.757378002077    -6.756902732198361    -6.7566068470769896    -6.756506619866803    -6.7566068470769896    
  -6.756902732198361    -6.757378002077    -6.758000814941866    -6.758720563414184    -6.759467943381653    
  -6.760159778444668    -6.760709501642539    -6.761042241859679    -6.761110968447815    -6.760910121270333    
  -6.76048460740446    -6.759930668495185    -6.759382356024056    -6.758980721265029    -6.7588334198578375    
  -6.759875382372295    -6.75997270735766    -6.760234971182345    -6.760582453369796    -6.760910121270333    
  -6.7611178427151115    -6.761134470548788    -6.760929263634495    -6.760511827540379    -6.759925044834697    
  -6.759234021021573    -6.758512926222307    -6.757832482709177    -6.757251077257813    -6.756810807730644    
  -6.75653785955144    -6.756445563507862    -6.75653785955144    -6.756810807730644    -6.7572510772578145    
  -6.757832482709177    -6.758512926222307    -6.759234021021573    -6.759925044834697    -6.760511827540379    
  -6.760929263634495    -6.7611344705487895    -6.7611178427151115    -6.760910121270333    -6.760582453369796    
  -6.760234971182345    -6.75997270735766    -6.759875382372295    -6.760611631949807    -6.760665100218896    
  -6.760805367128151    -6.76097809169501    -6.761110968447817    -6.761134470548788    -6.760999736542204    
  -6.760688377654566    -6.760213450799884    -6.75961393532469    -6.758945482200533    -6.758269729678549    
  -6.757644455732526    -6.757116698148676    -6.756719938251332    -6.756474874539949    -6.756392125463552    
  -6.756474874539949    -6.756719938251332    -6.757116698148676    -6.757644455732526    -6.758269729678549    
  -6.758945482200531    -6.75961393532469    -6.760213450799884    -6.760688377654566    -6.760999736542204    
  -6.761134470548788    -6.761110968447817    -6.76097809169501    -6.760805367128151    -6.760665100218896    
  -6.760611631949807    -6.760955015166131    -6.760974329380536    -6.76101982310007    -6.76105766182794    
  -6.761042241859679    -6.760929263634494    -6.760688377654566    -6.760311463262798    -6.759814267571393    
  -6.7592319195046215    -6.758610958609334    -6.758000764072153    -6.757446341057248    -6.756983639381473    
  -6.75663797749559    -6.756425090220584    -6.756353272707304    -6.756425090220584    -6.75663797749559    
  -6.756983639381473    -6.757446341057248    -6.758000764072153    -6.758610958609334    -6.7592319195046215    
  -6.759814267571393    -6.760311463262796    -6.760688377654566    -6.760929263634494    -6.761042241859679    
  -6.76105766182794    -6.76101982310007    -6.760974329380534    -6.760955015166131    -6.760899397160448    
  -6.760895193041034    -6.76087577635132    -6.7608224407874715    -6.760709501642539    -6.760511827540379    
  -6.760213450799884    -6.759814267571393    -6.759331691299719    -6.758796695530765    -6.7582468932125614    
  -6.7577199461035375    -6.757248892040976    -6.756859590411993    -6.75657022077157    -6.75639234884562    
  -6.756332370266799    -6.75639234884562    -6.75657022077157    -6.756859590411994    -6.757248892040976    
  -6.7577199461035375    -6.7582468932125614    -6.758796695530765    -6.759331691299719    -6.759814267571393    
  -6.760213450799884    -6.760511827540379    -6.760709501642539    -6.7608224407874715    -6.76087577635132    
  -6.760895193041034    -6.760899397160448    -6.760504021607031    -6.760485865564258    -6.760428510849611    
  -6.760323747070445    -6.760159778444668    -6.759925044834697    -6.759613935324688    -6.7592319195046215    
  -6.758796695530767    -6.758334474371655    -6.757874111137762    -6.757442436858211    -6.757061897644496    
  -6.756749820897493    -6.75651863910788    -6.7563766675259105    -6.756328795567805    -6.75637666752591    
  -6.75651863910788    -6.756749820897493    -6.757061897644496    -6.757442436858211    -6.757874111137762    
  -6.758334474371655    -6.758796695530767    -6.7592319195046215    -6.759613935324688    -6.759925044834697    
  -6.760159778444668    -6.760323747070445    -6.760428510849611    -6.760485865564258    -6.760504021607031    
  -6.759869201763872    -6.759844648533778    -6.759770683087403    -6.759645993987664    -6.759467943381653    
  -6.759234021021574    -6.758945482200531    -6.758610958609334    -6.75824689321256    -6.757874111137763    
  -6.757513150131787    -6.757181364378252    -6.756892415687893    -6.756656862964652    -6.756482736497175    
  -6.756375841874924    -6.756339794854001    -6.756375841874924    -6.756482736497175    -6.756656862964652    
  -6.756892415687893    -6.757181364378252    -6.757513150131787    -6.757874111137763    -6.75824689321256    
  -6.758610958609334    -6.758945482200531    -6.759234021021573    -6.759467943381653    -6.759645993987663    
  -6.759770683087403    -6.759844648533778    -6.759869201763872    -6.75911080151587    -6.759085239184525    
  -6.759009777323054    -6.758887231971523    -6.758720563414184    -6.758512926222306    -6.758269729678549    
  -6.758000764072153    -6.7577199461035375    -6.757442436858211    -6.757181364378252    -6.7569464300611415    
  -6.7567445821688    -6.756581272303242    -6.756461050168798    -6.756387442156463    -6.756362657672903    
  -6.756387442156463    -6.756461050168798    -6.756581272303242    -6.7567445821688    -6.7569464300611415    
  -6.757181364378252    -6.757442436858211    -6.7577199461035375    -6.758000764072153    -6.758269729678549    
  -6.758512926222306    -6.758720563414184    -6.758887231971523    -6.759009777323054    -6.7590852391845235    
  -6.75911080151587    -6.758340143928702    -6.758316912932762    -6.758249183874017    -6.758141835324967    
  -6.758000814941867    -6.757832482709175    -6.757644455732526    -6.75744634105725    -6.757248892040976    
  -6.757061897644496    -6.756892415687893    -6.7567445821688    -6.7566207548066455    -6.756522704671568    
  -6.756451922156982    -6.756409307807222    -6.756395106221958    -6.756409307807222    -6.756451922156982    
  -6.756522704671568    -6.7566207548066455    -6.7567445821688    -6.756892415687893    -6.757061897644496    
  -6.757248892040976    -6.75744634105725    -6.757644455732526    -6.757832482709175    -6.758000814941867    
  -6.758141835324967    -6.758249183874017    -6.758316912932762    -6.758340143928702    -6.757651608780648    
  -6.757632171292409    -6.757576073964191    -6.757488951557818    -6.757378002077    -6.757251077257813    
  -6.757116698148674    -6.756983639381473    -6.756859590411994    -6.756749820897493    -6.756656862964652    
  -6.75658127230324    -6.756522704671568    -6.756480423731885    -6.756453037296291    -6.756438265221799    
  -6.756433695438465    -6.7564382652217985    -6.756453037296291    -6.756480423731885    -6.756522704671568    
  -6.75658127230324    -6.756656862964652    -6.756749820897493    -6.756859590411994    -6.756983639381473    
  -6.757116698148676    -6.757251077257813    -6.757378002077    -6.757488951557818    -6.757576073964191    
  -6.757632171292409    -6.757651608780648    -6.757116147913698    -6.757100404030471    -6.757055437677241    
  -6.756987041883792    -6.756902732198361    -6.756810807730644    -6.75671993825133    -6.756637977495588    
  -6.756570220771572    -6.756518639107878    -6.756482736497175    -6.756461050168798    -6.75645192215698    
  -6.756453037296293    -6.7564604430473505    -6.756468539427159    -6.756471985167527    -6.756468539427157    
  -6.7564604430473505    -6.756453037296293    -6.75645192215698    -6.756461050168798    -6.756482736497175    
  -6.756518639107878    -6.756570220771572    -6.756637977495588    -6.75671993825133    -6.756810807730644    
  -6.756902732198361    -6.756987041883792    -6.757055437677241    -6.757100404030471    -6.757116147913698    
  -6.75677944549047    -6.756766248920863    -6.756728935913227    -6.756673302734876    -6.7566068470769896    
  -6.75653785955144    -6.756474874539947    -6.756425090220584    -6.75639234884562    -6.7563766675259105    
  -6.756375841874924    -6.756387442156463    -6.75640930780722    -6.756438265221799    -6.756468539427159    
  -6.756491950775509    -6.756500817754247    -6.756491950775509    -6.756468539427159    -6.7564382652217985    
  -6.75640930780722    -6.756387442156461    -6.756375841874924    -6.7563766675259105    -6.75639234884562    
  -6.756425090220584    -6.756474874539949    -6.75653785955144    -6.7566068470769896    -6.756673302734878    
  -6.756728935913227    -6.756766248920862    -6.75677944549047    -6.75666493187243    -6.756652628880662    
  -6.756618002703454    -6.756566845765512    -6.756506619866803    -6.756445563507862    -6.756392125463552    
  -6.756353272707304    -6.756332370266799    -6.756328795567804    -6.756339794853999    -6.756362657672903    
  -6.756395106221958    -6.756433695438465    -6.756471985167528    -6.756500817754247    -6.756511613628893    
  -6.7565008177542465    -6.756471985167528    -6.756433695438465    -6.756395106221958    -6.756362657672903    
  -6.756339794854001    -6.756328795567804    -6.756332370266799    -6.756353272707304    -6.756392125463552    
  -6.75644556350786    -6.756506619866803    -6.756566845765512    -6.756618002703454    -6.75665262888066    
  -6.75666493187243    -6.75677944549047    -6.756766248920862    -6.756728935913227    -6.756673302734876    
  -6.7566068470769896    -6.75653785955144    -6.756474874539949    -6.756425090220584    -6.75639234884562    
  -6.7563766675259105    -6.756375841874924    -6.756387442156463    -6.75640930780722    -6.756438265221799    
  -6.756468539427159    -6.756491950775509    -6.756500817754247    -6.756491950775509    -6.756468539427159    
  -6.756438265221799    -6.75640930780722    -6.756387442156461    -6.756375841874924    -6.7563766675259105    
  -6.75639234884562    -6.756425090220584    -6.756474874539949    -6.75653785955144    -6.7566068470769896    
  -6.756673302734878    -6.756728935913227    -6.756766248920862    -6.75677944549047    -6.7571161479137    
  -6.757100404030471    -6.757055437677241    -6.756987041883792    -6.756902732198361    -6.756810807730644    
  -6.75671993825133    -6.756637977495588    -6.756570220771572    -6.756518639107878    -6.756482736497175    
  -6.756461050168798    -6.75645192215698    -6.756453037296291    -6.7564604430473505    -6.756468539427159    
  -6.756471985167528    -6.756468539427157    -6.7564604430473505    -6.756453037296293    -6.75645192215698    
  -6.756461050168798    -6.756482736497175    -6.756518639107878    -6.756570220771572    -6.75663797749559    
  -6.75671993825133    -6.756810807730644    -6.756902732198361    -6.756987041883792    -6.757055437677241    
  -6.757100404030471    -6.7571161479137    -6.757651608780648    -6.757632171292409    -6.757576073964191    
  -6.757488951557818    -6.757378002077    -6.757251077257813    -6.757116698148676    -6.756983639381473    
  -6.756859590411994    -6.756749820897493    -6.756656862964652    -6.756581272303242    -6.756522704671568    
  -6.756480423731885    -6.756453037296293    -6.756438265221799    -6.756433695438465    -6.7564382652217985    
  -6.756453037296291    -6.756480423731885    -6.756522704671568    -6.75658127230324    -6.756656862964652    
  -6.756749820897493    -6.756859590411994    -6.756983639381473    -6.757116698148676    -6.757251077257813    
  -6.757378002077    -6.757488951557818    -6.757576073964191    -6.757632171292409    -6.757651608780648    
  -6.758340143928702    -6.758316912932762    -6.758249183874017    -6.758141835324967    -6.758000814941867    
  -6.757832482709175    -6.757644455732526    -6.75744634105725    -6.757248892040976    -6.757061897644496    
  -6.756892415687893    -6.7567445821688    -6.7566207548066455    -6.756522704671568    -6.756451922156982    
  -6.756409307807222    -6.756395106221958    -6.756409307807222    -6.756451922156982    -6.756522704671568    
  -6.7566207548066455    -6.7567445821688    -6.756892415687893    -6.757061897644496    -6.757248892040976    
  -6.75744634105725    -6.757644455732526    -6.757832482709175    -6.758000814941867    -6.758141835324967    
  -6.758249183874017    -6.758316912932762    -6.758340143928702    -6.75911080151587    -6.759085239184525    
  -6.759009777323054    -6.758887231971523    -6.758720563414184    -6.758512926222306    -6.758269729678549    
  -6.758000764072153    -6.7577199461035375    -6.757442436858211    -6.757181364378252    -6.7569464300611415    
  -6.7567445821688    -6.756581272303242    -6.756461050168798    -6.756387442156463    -6.756362657672903    
  -6.756387442156461    -6.756461050168798    -6.756581272303242    -6.7567445821688    -6.7569464300611415    
  -6.757181364378252    -6.757442436858211    -6.7577199461035375    -6.758000764072153    -6.758269729678549    
  -6.758512926222306    -6.758720563414184    -6.758887231971523    -6.759009777323054    -6.7590852391845235    
  -6.75911080151587    -6.759869201763872    -6.759844648533778    -6.759770683087403    -6.759645993987664    
  -6.759467943381653    -6.759234021021573    -6.758945482200531    -6.758610958609334    -6.75824689321256    
  -6.757874111137763    -6.7575131501317856    -6.757181364378252    -6.756892415687893    -6.756656862964652    
  -6.756482736497175    -6.756375841874924    -6.756339794853999    -6.756375841874924    -6.756482736497175    
  -6.756656862964652    -6.756892415687893    -6.757181364378252    -6.757513150131787    -6.757874111137763    
  -6.75824689321256    -6.758610958609334    -6.758945482200531    -6.759234021021573    -6.759467943381653    
  -6.759645993987664    -6.759770683087403    -6.759844648533778    -6.759869201763872    -6.760504021607031    
  -6.760485865564258    -6.76042851084961    -6.760323747070445    -6.760159778444668    -6.759925044834699    
  -6.759613935324688    -6.7592319195046215    -6.758796695530767    -6.758334474371655    -6.757874111137762    
  -6.757442436858211    -6.757061897644496    -6.756749820897493    -6.756518639107878    -6.7563766675259105    
  -6.756328795567805    -6.75637666752591    -6.75651863910788    -6.756749820897493    -6.757061897644496    
  -6.757442436858211    -6.757874111137762    -6.758334474371655    -6.758796695530767    -6.7592319195046215    
  -6.759613935324688    -6.759925044834699    -6.760159778444668    -6.760323747070445    -6.76042851084961    
  -6.760485865564258    -6.760504021607031    -6.760899397160448    -6.760895193041034    -6.76087577635132    
  -6.7608224407874715    -6.760709501642539    -6.760511827540379    -6.760213450799884    -6.759814267571393    
  -6.759331691299719    -6.758796695530765    -6.7582468932125614    -6.7577199461035375    -6.757248892040976    
  -6.756859590411993    -6.75657022077157    -6.75639234884562    -6.756332370266799    -6.75639234884562    
  -6.75657022077157    -6.756859590411994    -6.757248892040976    -6.7577199461035375    -6.7582468932125614    
  -6.758796695530765    -6.759331691299719    -6.759814267571393    -6.760213450799884    -6.760511827540379    
  -6.760709501642539    -6.7608224407874715    -6.76087577635132    -6.760895193041034    -6.760899397160448    
  -6.760955015166131    -6.760974329380536    -6.76101982310007    -6.761057661827941    -6.761042241859679    
  -6.760929263634494    -6.760688377654566    -6.760311463262796    -6.759814267571393    -6.7592319195046215    
  -6.758610958609334    -6.758000764072153    -6.757446341057248    -6.756983639381473    -6.75663797749559    
  -6.756425090220584    -6.756353272707304    -6.756425090220584    -6.756637977495588    -6.756983639381473    
  -6.757446341057248    -6.758000764072153    -6.758610958609334    -6.7592319195046215    -6.759814267571393    
  -6.760311463262796    -6.760688377654566    -6.760929263634494    -6.761042241859679    -6.761057661827941    
  -6.76101982310007    -6.760974329380536    -6.760955015166131    -6.760611631949809    -6.760665100218894    
  -6.760805367128151    -6.76097809169501    -6.761110968447817    -6.761134470548788    -6.760999736542204    
  -6.760688377654566    -6.760213450799884    -6.75961393532469    -6.758945482200533    -6.758269729678551    
  -6.757644455732526    -6.757116698148676    -6.756719938251332    -6.756474874539949    -6.756392125463552    
  -6.756474874539949    -6.756719938251332    -6.757116698148676    -6.757644455732526    -6.758269729678551    
  -6.758945482200531    -6.75961393532469    -6.760213450799884    -6.760688377654566    -6.760999736542204    
  -6.761134470548788    -6.761110968447817    -6.76097809169501    -6.760805367128152    -6.760665100218894    
  -6.760611631949809    -6.759875382372295    -6.75997270735766    -6.760234971182345    -6.760582453369796    
  -6.760910121270333    -6.7611178427151115    -6.7611344705487895    -6.760929263634495    -6.760511827540379    
  -6.759925044834697    -6.759234021021573    -6.758512926222307    -6.757832482709177    -6.757251077257813    
  -6.756810807730644    -6.75653785955144    -6.756445563507862    -6.75653785955144    -6.756810807730644    
  -6.7572510772578145    -6.757832482709177    -6.758512926222307    -6.759234021021573    -6.759925044834697    
  -6.760511827540379    -6.760929263634495    -6.7611344705487895    -6.7611178427151115    -6.760910121270333    
  -6.760582453369796    -6.760234971182345    -6.75997270735766    -6.759875382372295    -6.7588334198578375    
  -6.758980721265029    -6.759382356024056    -6.759930668495185    -6.76048460740446    -6.760910121270333    
  -6.761110968447815    -6.761042241859679    -6.760709501642539    -6.760159778444668    -6.759467943381653    
  -6.758720563414184    -6.758000814941866    -6.757378002077    -6.756902732198361    -6.7566068470769896    
  -6.756506619866803    -6.7566068470769896    -6.756902732198361    -6.757378002077    -6.758000814941866    
  -6.758720563414184    -6.759467943381653    -6.760159778444668    -6.760709501642539    -6.761042241859679    
  -6.761110968447815    -6.760910121270333    -6.76048460740446    -6.759930668495185    -6.759382356024056    
  -6.758980721265029    -6.7588334198578375    -6.757653543924617    -6.757850984041485    -6.758392928191465    
  -6.759144862636727    -6.759930668495185    -6.7605824533697945    -6.760978091695009    -6.76105766182794    
  -6.76082244078747    -6.760323747070443    -6.759645993987663    -6.758887231971523    -6.758141835324967    
  -6.757488951557816    -6.75698704188379    -6.756673302734876    -6.75656684576551    -6.7566733027348755    
  -6.75698704188379    -6.757488951557816    -6.758141835324967    -6.758887231971523    -6.759645993987663    
  -6.760323747070443    -6.76082244078747    -6.76105766182794    -6.760978091695009    -6.760582453369794    
  -6.759930668495185    -6.759144862636727    -6.758392928191465    -6.757850984041485    -6.757653543924617    
  -6.756560340699826    -6.756800883864082    -6.757463928544215    -6.758392928191465    -6.759382356024056    
  -6.760234971182345    -6.76080536712815    -6.76101982310007    -6.76087577635132    -6.76042851084961    
  -6.759770683087403    -6.759009777323053    -6.758249183874015    -6.757576073964191    -6.757055437677241    
  -6.756728935913225    -6.756618002703454    -6.756728935913225    -6.757055437677241    -6.757576073964191    
  -6.758249183874015    -6.759009777323053    -6.759770683087403    -6.76042851084961    -6.76087577635132    
  -6.76101982310007    -6.760805367128151    -6.760234971182345    -6.759382356024056    -6.758392928191464    
  -6.757463928544215    -6.756800883864082    -6.756560340699826    -6.755785784716805    -6.7560555249430525    
  -6.756800883864083    -6.757850984041484    -6.758980721265029    -6.75997270735766    -6.760665100218896    
  -6.760974329380534    -6.760895193041034    -6.7604858655642595    -6.759844648533778    -6.759085239184525    
  -6.758316912932762    -6.757632171292409    -6.757100404030471    -6.756766248920863    -6.756652628880662    
  -6.756766248920863    -6.757100404030471    -6.757632171292409    -6.758316912932762    -6.759085239184525    
  -6.75984464853378    -6.760485865564258    -6.760895193041034    -6.760974329380534    -6.760665100218896    
  -6.75997270735766    -6.758980721265029    -6.757850984041484    -6.756800883864083    -6.756055524943054    
  -6.755785784716805    -6.755505708726919    -6.755785784716805    -6.756560340699826    -6.757653543924619    
  -6.7588334198578375    -6.759875382372293    -6.760611631949807    -6.760955015166131    -6.760899397160448    
  -6.760504021607031    -6.759869201763873    -6.759110801515872    -6.758340143928701    -6.757651608780648    
  -6.7571161479137    -6.75677944549047    -6.7566649318724314    -6.75677944549047    -6.7571161479137    
  -6.75765160878065    -6.758340143928701    -6.759110801515872    -6.759869201763872    -6.760504021607031    
  -6.760899397160448    -6.760955015166129    -6.760611631949807    -6.759875382372295    -6.7588334198578375    
  -6.757653543924619    -6.756560340699826    -6.755785784716805    -6.755505708726919    -6.755490278095792    
  -6.7557789953712755    -6.756577386595667    -6.757703789810571    -6.758918166999497    -6.759988072032826    
  -6.760740331898483    -6.761086007829934    -6.761020676817605    -6.760607870789263    -6.7599530593929735    
  -6.75917603480892    -6.758389611247287    -6.757687879822382    -6.757141541382191    -6.75679721138609    
  -6.756679896939314    -6.75679721138609    -6.757141541382191    -6.757687879822384    -6.758389611247287    
  -6.75917603480892    -6.7599530593929735    -6.760607870789263    -6.761020676817605    -6.761086007829934    
  -6.760740331898483    -6.759988072032828    -6.758918166999497    -6.757703789810571    -6.756577386595667    
  -6.755778995371274    -6.755490278095792    -6.7557789953712755    -6.75605706507132    -6.7568253853507505    
  -6.757907422833543    -6.759070251934286    -6.7600888634470495    -6.760796215581292    -6.761107043135375    
  -6.761017871618304    -6.760591102033631    -6.7599300547276995    -6.759152191027447    -6.7583681750205695    
  -6.757670224804461    -6.757127544942099    -6.7567857472707455    -6.756669325525872    -6.756785747270746    
  -6.757127544942099    -6.757670224804461    -6.7583681750205695    -6.759152191027447    -6.7599300547276995    
  -6.76059110203363    -6.761017871618304    -6.761107043135376    -6.760796215581292    -6.7600888634470495    
  -6.759070251934286    -6.7579074228335445    -6.7568253853507505    -6.756057065071319    -6.7557789953712755    
  -6.756577386595665    -6.756825385350747    -6.757508934036196    -6.758466302703474    -6.759484825278553    
  -6.760360336717115    -6.760942752320479    -6.76115692733448    -6.7610020563739806    -6.76053744414028    
  -6.759860351146418    -6.759081557816664    -6.7583055653797715    -6.757619285510019    -6.757087704865096    
  -6.756753566367135    -6.756639846483179    -6.756753566367135    -6.757087704865096    -6.757619285510019    
  -6.7583055653797715    -6.759081557816664    -6.759860351146418    -6.76053744414028    -6.7610020563739806    
  -6.76115692733448    -6.760942752320479    -6.760360336717115    -6.759484825278553    -6.758466302703474    
  -6.757508934036196    -6.756825385350749    -6.756577386595665    -6.757703789810571    -6.757907422833543    
  -6.758466302703474    -6.759241387958082    -6.760050417961055    -6.760719650998397    -6.761123123648717    
  -6.761199924356492    -6.760953093831307    -6.760437580050748    -6.7597417171325365    -6.758966152278843    
  -6.7582059974961455    -6.757540204637241    -6.757027489794361    -6.756706255405634    -6.756597082092211    
  -6.756706255405634    -6.757027489794361    -6.757540204637241    -6.7582059974961455    -6.758966152278843    
  -6.7597417171325365    -6.760437580050748    -6.760953093831307    -6.761199924356492    -6.761123123648715    
  -6.760719650998397    -6.760050417961055    -6.759241387958082    -6.758466302703474    -6.757907422833543    
  -6.757703789810571    -6.758918166999497    -6.759070251934286    -6.759484825278553    -6.760050417961055    
  -6.760620978784663    -6.761057899792038    -6.76126215398322    -6.7611883808407205    -6.760843842481405    
  -6.760278603938337    -6.759570554647942    -6.758808043952423    -6.758074626214661    -6.757439539200964    
  -6.756953929674389    -6.756650930220925    -6.756548146552336    -6.756650930220925    -6.756953929674389    
  -6.757439539200964    -6.758074626214661    -6.758808043952425    -6.759570554647942    -6.760278603938337    
  -6.760843842481405    -6.7611883808407205    -6.76126215398322    -6.761057899792038    -6.760620978784663    
  -6.760050417961055    -6.759484825278553    -6.759070251934286    -6.758918166999497    -6.759988072032828    
  -6.7600888634470495    -6.760360336717115    -6.760719650998399    -6.761057899792038    -6.761271697831254    
  -6.761288191770718    -6.761076706834217    -6.760648374266979    -6.760048341318786    -6.75934371910651    
  -6.758609682117593    -6.757917094791705    -6.757324484659619    -6.756874743959685    -6.756595348391477    
  -6.756500758354459    -6.756595348391477    -6.756874743959685    -6.757324484659619    -6.757917094791705    
  -6.758609682117593    -6.75934371910651    -6.760048341318786    -6.760648374266979    -6.761076706834217    
  -6.761288191770718    -6.761271697831254    -6.761057899792038    -6.760719650998399    -6.760360336717115    
  -6.7600888634470495    -6.759988072032828    -6.760740331898483    -6.760796215581292    -6.760942752320479    