#     DFTpy    
  CRYSTAL 
    
  PRIMVEC    
  4.81    0.0    0.0    
  0.0    4.81    0.0    
  0.0    0.0    2.65    
  PRIMCOORD    
  4    1    
  Si    0.0    0.0    0.0    
  Si    2.405    2.405    1.325    
  Si    0.0    2.405    0.6625    
  Si    2.405    0.0    1.9874999999999998    
  BEGIN_BLOCK_DATAGRID_3D    
  3d_datagrid_density    
  BEGIN_DATAGRID_3D#0    
  46    46    26    
  0.0    0.0    0.0    
  4.810000017941392    0.0    0.0    
  0.0    4.810000017941392    0.0    
  0.0    0.0    2.650000009884551    
  -6.75043274575488    -6.750854012379137    -6.752308094373522    -6.755202171095624    -6.759640024106512    
  -6.764853246159882    -6.769360554130023    -6.771966335533491    -6.772534613906383    -6.7717830748774475    
  -6.770593897838075    -6.769589579486096    -6.7690883375325726    -6.769193400928387    -6.769863139644345    
  -6.7709486090181565    -6.772216803667731    -6.773382231240461    -6.774178182183437    -6.774465064839314    
  -6.774307719477364    -6.773947116438697    -6.773672143154138    -6.773672143154138    -6.7739471164386975    
  -6.774307719477362    -6.774465064839312    -6.7741781821834355    -6.773382231240461    -6.772216803667731    
  -6.770948609018155    -6.769863139644347    -6.769193400928387    -6.7690883375325726    -6.769589579486096    
  -6.770593897838075    -6.7717830748774475    -6.772534613906382    -6.7719663355334925    -6.769360554130024    
  -6.764853246159882    -6.759640024106512    -6.755202171095622    -6.752308094373522    -6.750854012379137    
  -6.75043274575488    -6.750854012379138    -6.751306804836689    -6.752839145634308    -6.755803021941331    
  -6.760220977273269    -6.765280685646543    -6.7695477089017775    -6.771926499875433    -6.772348279320371    
  -6.771532376693501    -6.7703281304585    -6.769327221217113    -6.76883098523889    -6.768936402359803    
  -6.769601734529104    -6.7706825427627    -6.77195451922321    -6.773142710974374    -6.773987165567516    
  -6.774345090224391    -6.774266900773534    -6.773973633616921    -6.773736976559928    -6.773736976559928    
  -6.773973633616921    -6.774266900773534    -6.774345090224391    -6.773987165567516    -6.773142710974372    
  -6.771954519223212    -6.7706825427627    -6.769601734529106    -6.768936402359803    -6.768830985238888    
  -6.7693272212171145    -6.770328130458502    -6.771532376693501    -6.772348279320371    -6.771926499875435    
  -6.7695477089017775    -6.765280685646543    -6.760220977273269    -6.755803021941331    -6.752839145634308    
  -6.751306804836691    -6.750854012379138    -6.75230809437352    -6.752839145634308    -6.7545526559401745    
  -6.757637007067902    -6.761903088344839    -6.766454481231369    -6.770014463706899    -6.771760105702106    
  -6.771786385061387    -6.770801098052804    -6.7695587493685    -6.768567387217891    -6.768083425345321    
  -6.768187384038406    -6.7688376038093265    -6.769902120589303    -6.7711801258779705    -6.772425117349996    
  -6.773396083697024    -6.773943094860664    -6.774078746682748    -6.77396958827892    -6.7738385659561695    
  -6.7738385659561695    -6.77396958827892    -6.774078746682747    -6.773943094860664    -6.773396083697024    
  -6.772425117349996    -6.7711801258779705    -6.769902120589303    -6.7688376038093265    -6.768187384038404    
  -6.768083425345321    -6.768567387217889    -6.7695587493685    -6.770801098052804    -6.771786385061389    
  -6.771760105702106    -6.770014463706899    -6.766454481231369    -6.761903088344839    -6.757637007067902    
  -6.7545526559401745    -6.752839145634308    -6.75230809437352    -6.755202171095622    -6.75580302194133    
  -6.7576370070679    -6.760656005975701    -6.764428740921671    -6.768042131024448    -6.770502949017574    
  -6.771349536395449    -6.7708470114093675    -6.769647083006982    -6.7683619011825025    -6.76738596733498    
  -6.766916453957172    -6.767012400114276    -6.767633161172304    -6.768664543253508    -6.769937573141621    
  -6.771244038352955    -6.772370131320801    -6.773160259084626    -6.773579505272105    -6.773720263663895    
  -6.773734862175775    -6.773734862175775    -6.773720263663895    -6.773579505272105    -6.7731602590846265    
  -6.772370131320801    -6.771244038352953    -6.769937573141621    -6.768664543253508    -6.767633161172306    
  -6.767012400114276    -6.766916453957172    -6.76738596733498    -6.7683619011825025    -6.769647083006982    
  -6.7708470114093675    -6.771349536395451    -6.770502949017574    -6.768042131024448    -6.764428740921671    
  -6.760656005975701    -6.7576370070679    -6.755803021941331    -6.755202171095622    -6.759640024106511    
  -6.760220977273269    -6.761903088344842    -6.764428740921672    -6.76723076284006    -6.769525370000158    
  -6.77068192747398    -6.770570377834061    -6.769548575134095    -6.768156839879528    -6.766845659633497    
  -6.7658936690152025    -6.7654387404890475    -6.765518241525419    -6.766093787262674    -6.7670710115422015    
  -6.768313848484067    -6.769652873195451    -6.77090406686848    -6.771911914146187    -6.772599522005889    
  -6.7729854905316556    -6.773146172914256    -6.773146172914256    -6.772985490531654    -6.772599522005889    
  -6.771911914146189    -6.77090406686848    -6.769652873195451    -6.768313848484068    -6.7670710115422015    
  -6.766093787262674    -6.7655182415254185    -6.7654387404890475    -6.7658936690152025    -6.766845659633497    
  -6.768156839879528    -6.769548575134095    -6.770570377834062    -6.77068192747398    -6.769525370000158    
  -6.76723076284006    -6.764428740921672    -6.761903088344842    -6.760220977273271    -6.759640024106511    
  -6.7648532461598805    -6.765280685646541    -6.766454481231369    -6.768042131024448    -6.7695253700001565    
  -6.770372789781432    -6.770293860500084    -6.769370657081997    -6.767953037269983    -6.766440184380757    
  -6.76513530677571    -6.764220080741453    -6.763782039181511    -6.76383939876468    -6.764356927112316    
  -6.765259318007942    -6.766439245604159    -6.767759902426325    -6.769064444132814    -6.7702039047170235    
  -6.771074713606516    -6.7716390692372865    -6.7719097195377325    -6.7719097195377325    -6.7716390692372865    
  -6.771074713606517    -6.7702039047170235    -6.769064444132814    -6.767759902426325    -6.766439245604159    
  -6.765259318007942    -6.764356927112316    -6.763839398764678    -6.763782039181512    -6.764220080741452    
  -6.76513530677571    -6.766440184380757    -6.767953037269983    -6.769370657081997    -6.770293860500084    
  -6.770372789781434    -6.7695253700001565    -6.7680421310244485    -6.766454481231369    -6.765280685646541    
  -6.7648532461598805    -6.769360554130023    -6.7695477089017775    -6.7700144637069    -6.770502949017574    
  -6.770681927473977    -6.7702938605000815    -6.769284317990506    -6.767817757496717    -6.76617462173495    
  -6.76462496610002    -6.763362023797866    -6.762497832960435    -6.762081515921384    -6.762115810740355    
  -6.762568859590267    -6.763381557306938    -6.764468876862199    -6.765718377869064    -6.766995436999097    
  -6.7681623056757045    -6.769105535718668    -6.769755151333864    -6.770082737249638    -6.770082737249638    
  -6.769755151333864    -6.769105535718668    -6.7681623056757045    -6.766995436999097    -6.765718377869064    
  -6.764468876862199    -6.763381557306938    -6.762568859590269    -6.762115810740355    -6.762081515921385    
  -6.762497832960435    -6.7633620237978676    -6.76462496610002    -6.766174621734949    -6.767817757496719    
  -6.769284317990506    -6.7702938605000815    -6.770681927473979    -6.770502949017576    -6.7700144637069    
  -6.7695477089017775    -6.769360554130023    -6.771966335533491    -6.771926499875432    -6.771760105702104    
  -6.771349536395452    -6.770570377834059    -6.769370657081997    -6.767817757496719    -6.766080260186842    
  -6.76436314665495    -6.762845630395204    -6.761651478031612    -6.76084784142191    -6.760457064698705    
  -6.7604708222454155    -6.760860167117826    -6.76157785434249    -6.762554548465797    -6.76369534068089    
  -6.764883646983796    -6.765995552837538    -6.7669201887722705    -6.7675758399817845    -6.7679141028463965    
  -6.7679141028463965    -6.767575839981783    -6.766920188772269    -6.765995552837538    -6.764883646983796    
  -6.763695340680888    -6.762554548465799    -6.76157785434249    -6.760860167117826    -6.7604708222454155    
  -6.760457064698705    -6.760847841421912    -6.761651478031612    -6.762845630395204    -6.764363146654952    
  -6.766080260186842    -6.767817757496719    -6.769370657081997    -6.770570377834059    -6.771349536395451    
  -6.771760105702104    -6.771926499875435    -6.771966335533491    -6.772534613906382    -6.772348279320369    
  -6.771786385061387    -6.7708470114093675    -6.7695485751340945    -6.767953037269982    -6.76617462173495    
  -6.76436314665495    -6.762671560578915    -6.761226417788067    -6.76011193213512    -6.759368523755784    
  -6.75900242134117    -6.758999100069685    -6.759331490884692    -6.759959131997189    -6.760822512038692    
  -6.761839663944221    -6.762909598269559    -6.7639233914152115    -6.764779389066434    -6.7653960099542765    
  -6.76571806585234    -6.76571806585234    -6.765396009954275    -6.764779389066434    -6.7639233914152115    
  -6.762909598269559    -6.761839663944221    -6.760822512038692    -6.759959131997189    -6.759331490884694    
  -6.758999100069685    -6.75900242134117    -6.759368523755784    -6.76011193213512    -6.761226417788067    
  -6.762671560578917    -6.764363146654952    -6.766174621734949    -6.767953037269983    -6.7695485751340945    
  -6.7708470114093675    -6.771786385061387    -6.77234827932037    -6.772534613906382    -6.7717830748774475    
  -6.771532376693499    -6.770801098052804    -6.76964708300698    -6.768156839879526    -6.766440184380757    
  -6.76462496610002    -6.7628456303952005    -6.761226417788067    -6.75986539164713    -6.758824803750627    
  -6.758131038135686    -6.75778348219314    -6.7577657868321985    -6.758051522730258    -6.758602455256997    
  -6.759364201359059    -6.760264389338449    -6.761215657721156    -6.762123705745698    -6.762898116788797    
  -6.763462026324455    -6.763759082468514    -6.763759082468514    -6.763462026324454    -6.762898116788795    
  -6.762123705745698    -6.761215657721156    -6.760264389338448    -6.759364201359059    -6.758602455256997    
  -6.758051522730258    -6.7577657868321985    -6.75778348219314    -6.758131038135686    -6.758824803750627    
  -6.75986539164713    -6.761226417788067    -6.762845630395202    -6.76462496610002    -6.766440184380757    
  -6.768156839879526    -6.769647083006982    -6.7708010980528055    -6.771532376693499    -6.7717830748774475    
  -6.770593897838075    -6.770328130458499    -6.7695587493685    -6.768361901182503    -6.766845659633497    
  -6.765135306775709    -6.7633620237978676    -6.761651478031611    -6.76011193213512    -6.758824803750628    
  -6.757840318358044    -6.7571795622495525    -6.756841652203713    -6.7568112329609615    -6.757061713249471    
  -6.757554385553656    -6.758236861796221    -6.759043232619905    -6.759896759916125    -6.760715382817856    
  -6.761418853586015    -6.761935581697755    -6.762209695654361    -6.762209695654361    -6.761935581697753    
  -6.761418853586015    -6.760715382817856    -6.759896759916125    -6.759043232619905    -6.758236861796221    
  -6.757554385553656    -6.757061713249471    -6.7568112329609615    -6.756841652203713    -6.7571795622495525    
  -6.757840318358044    -6.758824803750628    -6.76011193213512    -6.761651478031612    -6.7633620237978676    
  -6.765135306775709    -6.766845659633497    -6.768361901182503    -6.7695587493685    -6.7703281304585    
  -6.770593897838075    -6.7695895794861    -6.769327221217113    -6.768567387217891    -6.767385967334982    
  -6.765893669015201    -6.764220080741455    -6.762497832960436    -6.760847841421912    -6.759368523755784    
  -6.758131038135688    -6.757179562249553    -6.7565346466527325    -6.7561979305780815    -6.756156070220532    
  -6.756382422030912    -6.756837350187455    -6.7574689227531985    -6.758214613057414    -6.759004087440749    
  -6.759763255414064    -6.760418884817124    -6.760903348762063    -6.761161588933396    -6.761161588933398    
  -6.760903348762062    -6.760418884817123    -6.759763255414064    -6.759004087440751    -6.758214613057413    
  -6.7574689227531985    -6.756837350187455    -6.756382422030913    -6.7561560702205306    -6.7561979305780815    
  -6.7565346466527325    -6.757179562249553    -6.758131038135688    -6.759368523755785    -6.760847841421913    
  -6.762497832960436    -6.764220080741455    -6.7658936690152025    -6.767385967334982    -6.768567387217891    
  -6.7693272212171145    -6.7695895794861    -6.7690883375325726    -6.768830985238886    -6.768083425345321    
  -6.766916453957172    -6.765438740489044    -6.763782039181511    -6.762081515921384    -6.760457064698703    
  -6.75900242134117    -6.75778348219314    -6.756841652203712    -6.75619793057808    -6.7558561140444615    
  -6.755804753311414    -6.756017952680015    -6.756455999731614    -6.757066880918237    -6.757788786065711    
  -6.758553329026837    -6.759289233755527    -6.759925895944091    -6.76039728841785    -6.760648941566158    
  -6.760648941566158    -6.760397288417849    -6.759925895944091    -6.759289233755527    -6.758553329026837    
  -6.757788786065709    -6.757066880918237    -6.756455999731614    -6.756017952680017    -6.755804753311414    
  -6.7558561140444615    -6.75619793057808    -6.756841652203712    -6.75778348219314    -6.75900242134117    
  -6.760457064698703    -6.762081515921384    -6.763782039181511    -6.765438740489044    -6.766916453957172    
  -6.768083425345321    -6.768830985238886    -6.7690883375325726    -6.769193400928385    -6.768936402359802    
  -6.768187384038403    -6.767012400114274    -6.765518241525417    -6.763839398764678    -6.762115810740355    
  -6.760470822245414    -6.758999100069684    -6.757765786832197    -6.7568112329609615    -6.7561560702205306    
  -6.755804753311414    -6.755747223139317    -6.755958980471445    -6.756400959405729    -6.757020704248559    
  -6.757755083547249    -6.758533904073511    -6.759283818211085    -6.759932164243443    -6.7604114956096035    
  -6.760666993190258    -6.760666993190258    -6.7604114956096035    -6.759932164243443    -6.759283818211085    
  -6.758533904073511    -6.757755083547249    -6.757020704248559    -6.756400959405729    -6.755958980471445    
  -6.755747223139317    -6.755804753311414    -6.7561560702205306    -6.7568112329609615    -6.757765786832197    
  -6.758999100069685    -6.7604708222454155    -6.762115810740355    -6.763839398764678    -6.765518241525417    
  -6.767012400114276    -6.768187384038403    -6.768936402359803    -6.769193400928385    -6.769863139644345    
  -6.769601734529106    -6.768837603809328    -6.767633161172306    -6.766093787262674    -6.764356927112317    
  -6.762568859590269    -6.760860167117827    -6.759331490884694    -6.758051522730258    -6.757061713249472    
  -6.756382422030913    -6.756017952680017    -6.7559589804714495    -6.756182145807914    -6.756648818238721    
  -6.757305458680197    -6.75808606375171    -6.75891578611849    -6.759715214926948    -6.760405426443019    
  -6.760914278905161    -6.761184759858873    -6.761184759858871    -6.760914278905161    -6.760405426443018    
  -6.759715214926948    -6.75891578611849    -6.75808606375171    -6.7573054586801975    -6.756648818238721    
  -6.756182145807916    -6.755958980471449    -6.756017952680017    -6.756382422030913    -6.757061713249472    
  -6.758051522730258    -6.759331490884694    -6.760860167117829    -6.762568859590267    -6.764356927112317    
  -6.766093787262674    -6.767633161172306    -6.768837603809329    -6.769601734529107    -6.769863139644345    
  -6.7709486090181565    -6.7706825427626995    -6.769902120589303    -6.768664543253508    -6.7670710115422    
  -6.765259318007942    -6.763381557306938    -6.761577854342489    -6.759959131997189    -6.758602455256997    
  -6.757554385553655    -6.756837350187453    -6.756455999731614    -6.756400959405729    -6.75664881823872    
  -6.757160354708805    -6.757880025431439    -6.758737621069726    -6.759651440775257    -6.760532995129311    
  -6.761293727409959    -6.761853550443518    -6.762150547058654    -6.762150547058654    -6.761853550443518    
  -6.761293727409959    -6.760532995129311    -6.759651440775258    -6.758737621069726    -6.757880025431439    
  -6.757160354708805    -6.756648818238721    -6.7564009594057275    -6.756455999731614    -6.756837350187453    
  -6.757554385553655    -6.758602455256997    -6.759959131997189    -6.76157785434249    -6.763381557306938    
  -6.765259318007942    -6.7670710115422    -6.768664543253509    -6.769902120589303    -6.7706825427627    
  -6.7709486090181565    -6.772216803667733    -6.77195451922321    -6.771180125877972    -6.769937573141623    
  -6.768313848484067    -6.766439245604161    -6.764468876862199    -6.762554548465799    -6.760822512038693    
  -6.759364201359057    -6.758236861796223    -6.7574689227531985    -6.757066880918237    -6.75702070424856    
  -6.757305458680195    -6.757880025431439    -6.758685822647821    -6.759647217357649    -6.760673960440895    
  -6.761666346623973    -6.762523611470858    -6.763154627273288    -6.763489345864    -6.763489345864    
  -6.763154627273288    -6.762523611470858    -6.761666346623973    -6.760673960440895    -6.759647217357649    
  -6.758685822647821    -6.757880025431439    -6.757305458680197    -6.75702070424856    -6.757066880918237    
  -6.7574689227531985    -6.758236861796223    -6.759364201359059    -6.760822512038695    -6.7625545484658005    
  -6.764468876862199    -6.766439245604161    -6.768313848484067    -6.769937573141621    -6.771180125877972    
  -6.771954519223212    -6.772216803667733    -6.7733822312404595    -6.773142710974369    -6.772425117349996    
  -6.771244038352953    -6.769652873195449    -6.767759902426323    -6.765718377869062    -6.763695340680888    
  -6.761839663944219    -6.760264389338449    -6.759043232619903    -6.758214613057412    -6.757788786065709    
  -6.757755083547249    -6.758086063751706    -6.758737621069726    -6.759647217357648    -6.760732887284259    
  -6.761894777493605    -6.763020615867282    -6.76399547382992    -6.764714432375473    -6.765096281596919    
  -6.765096281596919    -6.764714432375473    -6.763995473829918    -6.763020615867282    -6.761894777493605    
  -6.760732887284259    -6.759647217357648    -6.758737621069726    -6.7580860637517075    -6.757755083547249    
  -6.757788786065709    -6.758214613057413    -6.759043232619905    -6.760264389338449    -6.761839663944219    
  -6.76369534068089    -6.765718377869064    -6.767759902426323    -6.769652873195448    -6.771244038352953    
  -6.772425117349996    -6.77314271097437    -6.7733822312404595    -6.7741781821834355    -6.7739871655675135    
  -6.773396083697024    -6.772370131320803    -6.770904066868482    -6.769064444132814    -6.766995436999096    
  -6.764883646983792    -6.762909598269557    -6.761215657721156    -6.759896759916123    -6.759004087440747    
  -6.758553329026837    -6.758533904073511    -6.7589157861184885    -6.759651440775257    -6.760673960440895    
  -6.761894777493605    -6.763204145970587    -6.764476560567407    -6.765581573011914    -6.766398532223773    
  -6.7668331363902015    -6.7668331363902015    -6.766398532223773    -6.765581573011914    -6.764476560567407    
  -6.763204145970587    -6.7618947774936045    -6.760673960440894    -6.759651440775257    -6.75891578611849    
  -6.758533904073509    -6.758553329026837    -6.759004087440747    -6.759896759916123    -6.761215657721156    
  -6.762909598269557    -6.764883646983794    -6.766995436999096    -6.769064444132814    -6.77090406686848    
  -6.772370131320801    -6.773396083697024    -6.773987165567514    -6.7741781821834355    -6.774465064839314    
  -6.774345090224388    -6.773943094860664    -6.7731602590846265    -6.771911914146186    -6.7702039047170235    
  -6.768162305675705    -6.765995552837538    -6.7639233914152115    -6.762123705745698    -6.760715382817856    
  -6.759763255414064    -6.759289233755527    -6.759283818211086    -6.759715214926946    -6.760532995129313    
  -6.761666346623971    -6.763020615867283    -6.764476560567409    -6.7658954408221215    -6.76713088201892    
  -6.76804606434467    -6.7685334800272265    -6.7685334800272265    -6.76804606434467    -6.76713088201892    
  -6.7658954408221215    -6.764476560567409    -6.763020615867282    -6.761666346623971    -6.760532995129311    
  -6.759715214926948    -6.759283818211085    -6.759289233755527    -6.759763255414064    -6.760715382817856    
  -6.762123705745698    -6.7639233914152115    -6.7659955528375395    -6.768162305675705    -6.7702039047170235    
  -6.771911914146185    -6.773160259084628    -6.773943094860664    -6.774345090224389    -6.774465064839314    
  -6.774307719477364    -6.77426690077353    -6.774078746682748    -6.773579505272107    -6.772599522005888    
  -6.771074713606514    -6.769105535718668    -6.7669201887722705    -6.764779389066436    -6.762898116788797    
  -6.761418853586015    -6.760418884817123    -6.759925895944093    -6.759932164243445    -6.7604054264430165    
  -6.761293727409961    -6.762523611470858    -6.76399547382992    -6.765581573011916    -6.767130882018922    
  -6.768482264609249    -6.769484347919036    -6.770018264020062    -6.770018264020062    -6.769484347919036    
  -6.768482264609249    -6.767130882018922    -6.765581573011916    -6.76399547382992    -6.762523611470856    
  -6.761293727409961    -6.760405426443019    -6.759932164243445    -6.759925895944093    -6.760418884817123    
  -6.761418853586015    -6.762898116788797    -6.764779389066436    -6.7669201887722705    -6.769105535718668    
  -6.771074713606516    -6.772599522005888    -6.773579505272107    -6.774078746682748    -6.774266900773532    
  -6.774307719477364    -6.773947116438695    -6.773973633616919    -6.77396958827892    -6.773720263663896    
  -6.772985490531652    -6.771639069237284    -6.769755151333862    -6.767575839981781    -6.765396009954275    
  -6.763462026324454    -6.761935581697752    -6.76090334876206    -6.760397288417849    -6.760411495609602    
  -6.76091427890516    -6.761853550443516    -6.763154627273286    -6.764714432375471    -6.766398532223773    
  -6.768046064344667    -6.769484347919034    -6.770551113887934    -6.771119432910076    -6.771119432910075    
  -6.770551113887934    -6.769484347919033    -6.768046064344669    -6.766398532223773    -6.764714432375471    
  -6.763154627273286    -6.761853550443516    -6.76091427890516    -6.760411495609602    -6.760397288417849    
  -6.76090334876206    -6.761935581697752    -6.763462026324454    -6.765396009954275    -6.767575839981781    
  -6.769755151333862    -6.771639069237286    -6.772985490531652    -6.773720263663896    -6.77396958827892    
  -6.7739736336169205    -6.773947116438695    -6.77367214315414    -6.773736976559924    -6.7738385659561695    
  -6.773734862175775    -6.773146172914255    -6.771909719537731    -6.770082737249638    -6.767914102846395    
  -6.765718065852342    -6.763759082468512    -6.762209695654361    -6.761161588933395    -6.760648941566158    
  -6.760666993190259    -6.761184759858871    -6.762150547058655    -6.763489345864    -6.765096281596921    
  -6.7668331363902015    -6.7685334800272265    -6.770018264020062    -6.771119432910077    -6.771705960030404    
  -6.771705960030403    -6.771119432910076    -6.770018264020062    -6.7685334800272265    -6.7668331363902015    
  -6.765096281596919    -6.763489345863999    -6.762150547058655    -6.761184759858871    -6.760666993190258    
  -6.760648941566158    -6.761161588933396    -6.762209695654361    -6.763759082468512    -6.76571806585234    
  -6.767914102846397    -6.770082737249638    -6.7719097195377325    -6.773146172914255    -6.773734862175775    
  -6.7738385659561695    -6.773736976559926    -6.77367214315414    -6.773672143154138    -6.773736976559924    
  -6.7738385659561695    -6.773734862175775    -6.773146172914255    -6.771909719537731    -6.770082737249638    
  -6.7679141028463965    -6.76571806585234    -6.763759082468512    -6.762209695654361    -6.761161588933395    
  -6.760648941566159    -6.760666993190259    -6.761184759858869    -6.762150547058655    -6.763489345863999    
  -6.765096281596919    -6.7668331363902015    -6.7685334800272265    -6.770018264020062    -6.771119432910076    
  -6.771705960030403    -6.771705960030403    -6.771119432910076    -6.770018264020062    -6.7685334800272265    
  -6.7668331363902015    -6.765096281596919    -6.763489345863999    -6.762150547058655    -6.761184759858871    
  -6.760666993190258    -6.760648941566158    -6.761161588933395    -6.762209695654361    -6.763759082468512    
  -6.76571806585234    -6.767914102846397    -6.770082737249638    -6.7719097195377325    -6.773146172914255    
  -6.773734862175775    -6.7738385659561695    -6.773736976559926    -6.773672143154138    -6.773947116438695    
  -6.773973633616919    -6.77396958827892    -6.773720263663896    -6.772985490531652    -6.771639069237284    
  -6.769755151333862    -6.767575839981781    -6.765396009954275    -6.763462026324454    -6.761935581697752    
  -6.76090334876206    -6.760397288417849    -6.760411495609602    -6.76091427890516    -6.761853550443516    
  -6.763154627273286    -6.764714432375471    -6.766398532223773    -6.768046064344667    -6.769484347919034    
  -6.770551113887934    -6.771119432910075    -6.771119432910075    -6.770551113887932    -6.769484347919033    
  -6.768046064344669    -6.766398532223773    -6.764714432375471    -6.763154627273286    -6.761853550443516    
  -6.760914278905161    -6.760411495609602    -6.76039728841785    -6.760903348762062    -6.761935581697752    
  -6.763462026324454    -6.765396009954275    -6.767575839981781    -6.769755151333861    -6.771639069237286    
  -6.772985490531652    -6.773720263663896    -6.77396958827892    -6.7739736336169205    -6.773947116438695    
  -6.774307719477364    -6.77426690077353    -6.774078746682748    -6.773579505272107    -6.772599522005888    
  -6.771074713606514    -6.769105535718668    -6.7669201887722705    -6.764779389066436    -6.762898116788797    
  -6.761418853586015    -6.760418884817123    -6.759925895944091    -6.759932164243445    -6.7604054264430165    
  -6.761293727409961    -6.762523611470858    -6.76399547382992    -6.765581573011916    -6.767130882018922    
  -6.768482264609249    -6.769484347919036    -6.770018264020062    -6.770018264020062    -6.769484347919036    
  -6.768482264609249    -6.767130882018922    -6.765581573011916    -6.76399547382992    -6.762523611470856    
  -6.761293727409961    -6.760405426443018    -6.759932164243443    -6.759925895944091    -6.760418884817123    
  -6.761418853586015    -6.762898116788797    -6.764779389066436    -6.7669201887722705    -6.769105535718668    
  -6.771074713606516    -6.772599522005888    -6.773579505272107    -6.774078746682748    -6.774266900773532    
  -6.774307719477364    -6.774465064839314    -6.774345090224388    -6.773943094860663    -6.773160259084628    
  -6.771911914146185    -6.7702039047170235    -6.768162305675705    -6.765995552837538    -6.7639233914152115    
  -6.762123705745698    -6.760715382817856    -6.759763255414064    -6.759289233755529    -6.759283818211086    
  -6.759715214926946    -6.760532995129313    -6.761666346623971    -6.763020615867283    -6.764476560567409    
  -6.7658954408221215    -6.76713088201892    -6.76804606434467    -6.7685334800272265    -6.768533480027225    
  -6.76804606434467    -6.76713088201892    -6.7658954408221215    -6.764476560567409    -6.763020615867282    
  -6.761666346623971    -6.760532995129313    -6.759715214926948    -6.759283818211086    -6.759289233755529    
  -6.759763255414064    -6.760715382817856    -6.762123705745698    -6.7639233914152115    -6.7659955528375395    
  -6.768162305675705    -6.7702039047170235    -6.771911914146185    -6.773160259084628    -6.773943094860664    
  -6.774345090224389    -6.774465064839314    -6.7741781821834355    -6.7739871655675135    -6.773396083697024    
  -6.772370131320801    -6.77090406686848    -6.769064444132814    -6.766995436999096    -6.764883646983792    
  -6.762909598269557    -6.761215657721154    -6.759896759916125    -6.759004087440747    -6.758553329026837    
  -6.758533904073509    -6.7589157861184885    -6.759651440775257    -6.760673960440894    -6.761894777493605    
  -6.763204145970587    -6.764476560567407    -6.765581573011914    -6.766398532223773    -6.7668331363902015    
  -6.7668331363902015    -6.766398532223773    -6.765581573011914    -6.764476560567407    -6.763204145970587    
  -6.761894777493605    -6.760673960440895    -6.759651440775257    -6.7589157861184885    -6.758533904073509    
  -6.758553329026837    -6.759004087440747    -6.759896759916123    -6.761215657721156    -6.762909598269557    
  -6.764883646983794    -6.766995436999096    -6.769064444132814    -6.770904066868482    -6.772370131320801    
  -6.773396083697024    -6.773987165567514    -6.7741781821834355    -6.7733822312404595    -6.77314271097437    
  -6.772425117349996    -6.771244038352953    -6.769652873195449    -6.767759902426323    -6.765718377869064    
  -6.763695340680888    -6.761839663944219    -6.760264389338449    -6.759043232619903    -6.758214613057412    