#     DFTpy    
  CRYSTAL 
    
  PRIMVEC    
  3.09    0.0    0.0    
  0.0    3.09    0.0    
  0.0    0.0    3.09    
  PRIMCOORD    
  2    1    
  Si    0.0    0.0    0.0    
  Si    1.545    1.545    1.545    
  BEGIN_BLOCK_DATAGRID_3D    
  3d_datagrid_density    
  BEGIN_DATAGRID_3D#0    
  31    31    31    
  0.0    0.0    0.0    
  3.0900000115257598    0.0    0.0    
  0.0    3.0900000115257598    0.0    
  0.0    0.0    3.0900000115257598    
  -6.751881252562119    -6.752626010229884    -6.755191893298351    -6.760310814718969    -6.768264490095917    
  -6.777860140465044    -6.786463982913792    -6.791565546750939    -6.792384232713541    -6.789928316653234    
  -6.785866384203329    -6.781561276187176    -6.777816704246209    -6.775021078053369    -6.773324503122975    
  -6.7727592676331145    -6.773324503122975    -6.775021078053369    -6.777816704246211    -6.781561276187176    
  -6.785866384203329    -6.789928316653232    -6.792384232713541    -6.791565546750939    -6.786463982913792    
  -6.777860140465044    -6.768264490095915    -6.760310814718969    -6.755191893298351    -6.752626010229884    
  -6.751881252562119    -6.752626010229884    -6.753430574345991    -6.756152306385085    -6.761439640320939    
  -6.7694396815384374    -6.778862896826157    -6.787116603738592    -6.791844173058893    -6.792399547329669    
  -6.789822908329613    -6.785739554172062    -6.781457586250511    -6.777746147769535    -6.774978414976966    
  -6.773299319650927    -6.772739943180374    -6.773299319650927    -6.774978414976966    -6.777746147769536    
  -6.78145758625051    -6.7857395541720615    -6.789822908329613    -6.792399547329669    -6.7918441730588945    
  -6.787116603738592    -6.778862896826155    -6.7694396815384374    -6.761439640320939    -6.7561523063850855    
  -6.753430574345991    -6.752626010229884    -6.755191893298351    -6.7561523063850855    -6.759261628056265    
  -6.7649132985321225    -6.772889953742084    -6.781686190200671    -6.788876825069689    -6.79254144914349    
  -6.7923789983395855    -6.789488260344072    -6.785361531720387    -6.781154270193181    -6.777541754797942    
  -6.774856010257572    -6.7732279830310995    -6.772685672700075    -6.7732279830310995    -6.774856010257572    
  -6.7775417547979435    -6.781154270193182    -6.785361531720387    -6.789488260344072    -6.7923789983395855    
  -6.79254144914349    -6.788876825069687    -6.781686190200671    -6.7728899537420855    -6.7649132985321225    
  -6.759261628056265    -6.7561523063850855    -6.755191893298351    -6.760310814718968    -6.7614396403209405    
  -6.7649132985321225    -6.770732343737719    -6.778221067131021    -6.785720962052152    -6.791173008781907    
  -6.793280250648969    -6.792146475111553    -6.788874697850221    -6.784736677743551    -6.780669982515981    
  -6.777221733798765    -6.774668135983865    -6.773121338467408    -6.772605987631917    -6.773121338467408    
  -6.774668135983865    -6.777221733798766    -6.780669982515981    -6.784736677743551    -6.788874697850221    
  -6.792146475111553    -6.793280250648969    -6.791173008781906    -6.785720962052152    -6.778221067131019    
  -6.770732343737721    -6.7649132985321225    -6.7614396403209405    -6.760310814718968    -6.768264490095915    
  -6.769439681538439    -6.772889953742087    -6.778221067131021    -6.784421409476817    -6.7899107848314735    
  -6.793179644600726    -6.793570694674502    -6.791486287465783    -6.787921732424965    -6.7838681915377705    
  -6.780025662894795    -6.7768078296810055    -6.774432710625573    -6.7729935570171245    -6.772513568897014    
  -6.772993557017126    -6.774432710625573    -6.776807829681006    -6.780025662894795    -6.7838681915377705    
  -6.787921732424964    -6.791486287465783    -6.793570694674502    -6.793179644600726    -6.7899107848314735    
  -6.784421409476815    -6.778221067131021    -6.772889953742087    -6.769439681538439    -6.768264490095915    
  -6.777860140465044    -6.7788628968261575    -6.781686190200671    -6.785720962052153    -6.789910784831473    
  -6.7930080478301695    -6.7940985136916145    -6.79300722050937    -6.790242503612006    -6.786593787672985    
  -6.782764939177076    -6.77924185429695    -6.776320956273991    -6.774167922624071    -6.7728602578395165    
  -6.772423048094034    -6.7728602578395165    -6.774167922624071    -6.776320956273991    -6.77924185429695    
  -6.782764939177076    -6.786593787672985    -6.790242503612006    -6.79300722050937    -6.7940985136916145    
  -6.7930080478301695    -6.789910784831473    -6.785720962052153    -6.781686190200671    -6.7788628968261575    
  -6.777860140465044    -6.78646398291379    -6.787116603738592    -6.788876825069689    -6.791173008781906    
  -6.793179644600726    -6.794098513691613    -6.793493687675526    -6.791442459588865    -6.788397880868986    
  -6.7849152544765765    -6.781457720386211    -6.778345701229133    -6.775783108509881    -6.773891903823762    
  -6.772737698217083    -6.772350222909094    -6.772737698217083    -6.773891903823762    -6.775783108509881    
  -6.778345701229133    -6.781457720386211    -6.7849152544765765    -6.788397880868988    -6.791442459588865    
  -6.793493687675526    -6.794098513691613    -6.793179644600726    -6.791173008781906    -6.788876825069689    
  -6.787116603738593    -6.78646398291379    -6.791565546750937    -6.791844173058893    -6.792541449143489    
  -6.793280250648969    -6.793570694674502    -6.793007220509368    -6.791442459588865    -6.789024008576872    
  -6.786083374182614    -6.782981315806081    -6.7800116265701424    -6.777380226545367    -6.775221910894945    
  -6.7736233247417355    -6.772640913445154    -6.772309363975778    -6.772640913445154    -6.7736233247417355    
  -6.775221910894945    -6.777380226545367    -6.7800116265701424    -6.782981315806081    -6.786083374182614    
  -6.789024008576872    -6.791442459588865    -6.793007220509368    -6.793570694674502    -6.793280250648969    
  -6.792541449143489    -6.791844173058893    -6.791565546750937    -6.792384232713541    -6.792399547329671    
  -6.7923789983395855    -6.7921464751115534    -6.7914862874657835    -6.790242503612005    -6.788397880868986    
  -6.786083374182615    -6.783519153089827    -6.7809355735898045    -6.778520326433402    -6.776403812433633    
  -6.774670599152195    -6.773379978779041    -6.772580451298862    -6.7723090959341805    -6.772580451298862    
  -6.773379978779041    -6.774670599152195    -6.776403812433633    -6.778520326433402    -6.7809355735898045    
  -6.783519153089827    -6.786083374182615    -6.788397880868986    -6.790242503612005    -6.791486287465783    
  -6.7921464751115534    -6.7923789983395855    -6.792399547329671    -6.792384232713541    -6.78992831665323    
  -6.789822908329613    -6.789488260344071    -6.788874697850219    -6.787921732424964    -6.786593787672985    
  -6.784915254476576    -6.782981315806081    -6.780935573589803    -6.7789285852722445    -6.777082052682876    
  -6.775476128159292    -6.774160490858764    -6.773174711432273    -6.772559328473522    -6.772349433308962    
  -6.772559328473523    -6.773174711432273    -6.774160490858764    -6.7754761281592915    -6.777082052682876    
  -6.7789285852722445    -6.780935573589803    -6.782981315806081    -6.784915254476576    -6.786593787672985    
  -6.787921732424964    -6.788874697850219    -6.789488260344071    -6.789822908329613    -6.78992831665323    
  -6.785866384203327    -6.785739554172064    -6.785361531720389    -6.784736677743551    -6.7838681915377705    
  -6.782764939177076    -6.78145772038621    -6.780011626570143    -6.778520326433403    -6.777082052682876    
  -6.775773593219389    -6.7746411639946675    -6.773711910555948    -6.773011751671698    -6.772572189088448    
  -6.772421778062294    -6.772572189088448    -6.773011751671698    -6.773711910555948    -6.774641163994669    
  -6.775773593219387    -6.777082052682876    -6.778520326433403    -6.780011626570143    -6.78145772038621    
  -6.782764939177076    -6.7838681915377705    -6.784736677743551    -6.785361531720389    -6.785739554172064    
  -6.785866384203327    -6.781561276187174    -6.781457586250511    -6.781154270193182    -6.780669982515981    
  -6.7800256628947935    -6.77924185429695    -6.778345701229133    -6.777380226545367    -6.776403812433633    
  -6.7754761281592915    -6.7746411639946675    -6.773922365971238    -6.773332704127734    -6.772887552041597    
  -6.772607682876106    -6.772511880123798    -6.772607682876106    -6.772887552041597    -6.773332704127734    
  -6.773922365971239    -6.7746411639946675    -6.7754761281592915    -6.776403812433633    -6.777380226545367    
  -6.778345701229133    -6.77924185429695    -6.780025662894795    -6.780669982515981    -6.781154270193182    
  -6.781457586250511    -6.781561276187174    -6.777816704246208    -6.7777461477695375    -6.777541754797942    
  -6.777221733798763    -6.776807829681006    -6.776320956273989    -6.775783108509879    -6.775221910894945    
  -6.774670599152195    -6.774160490858764    -6.773711910555948    -6.773332704127735    -6.773025589524625    
  -6.7727959553525885    -6.772652732753243    -6.77260395604324    -6.772652732753243    -6.7727959553525885    
  -6.773025589524625    -6.773332704127735    -6.773711910555947    -6.774160490858764    -6.774670599152195    
  -6.775221910894945    -6.775783108509881    -6.776320956273989    -6.776807829681006    -6.777221733798763    
  -6.777541754797942    -6.7777461477695375    -6.777816704246208    -6.775021078053369    -6.774978414976966    
  -6.7748560102575714    -6.774668135983866    -6.774432710625573    -6.77416792262407    -6.773891903823762    
  -6.773623324741737    -6.77337997877904    -6.773174711432273    -6.773011751671697    -6.772887552041598    
  -6.7727959553525885    -6.772732652012701    -6.772695556746933    -6.772683384941276    -6.772695556746933    
  -6.772732652012703    -6.7727959553525885    -6.772887552041597    -6.773011751671697    -6.773174711432273    
  -6.77337997877904    -6.773623324741737    -6.773891903823762    -6.77416792262407    -6.774432710625573    
  -6.774668135983865    -6.7748560102575714    -6.774978414976966    -6.775021078053369    -6.773324503122973    
  -6.773299319650927    -6.773227983031098    -6.7731213384674085    -6.772993557017123    -6.772860257839515    
  -6.772737698217083    -6.772640913445154    -6.772580451298864    -6.772559328473522    -6.772572189088447    
  -6.772607682876106    -6.772652732753241    -6.772695556746931    -6.772726282469589    -6.772737495874739    
  -6.772726282469589    -6.772695556746931    -6.772652732753241    -6.772607682876106    -6.772572189088447    
  -6.772559328473522    -6.772580451298864    -6.772640913445154    -6.772737698217081    -6.772860257839515    
  -6.772993557017123    -6.7731213384674085    -6.773227983031098    -6.773299319650925    -6.773324503122973    
  -6.7727592676331145    -6.772739943180377    -6.772685672700075    -6.772605987631917    -6.772513568897016    
  -6.772423048094034    -6.772350222909094    -6.772309363975778    -6.772309095934182    -6.772349433308964    
  -6.772421778062296    -6.772511880123799    -6.772603956043242    -6.772683384941276    -6.772737495874741    
  -6.772756765962111    -6.772737495874741    -6.772683384941276    -6.772603956043242    -6.772511880123799    
  -6.772421778062296    -6.772349433308964    -6.772309095934182    -6.772309363975778    -6.772350222909094    
  -6.772423048094034    -6.772513568897016    -6.772605987631917    -6.772685672700075    -6.772739943180376    
  -6.7727592676331145    -6.773324503122975    -6.773299319650927    -6.773227983031098    -6.773121338467408    
  -6.772993557017123    -6.772860257839515    -6.772737698217083    -6.772640913445154    -6.772580451298864    
  -6.772559328473522    -6.772572189088447    -6.772607682876106    -6.772652732753241    -6.772695556746933    
  -6.772726282469589    -6.772737495874739    -6.772726282469589    -6.772695556746931    -6.772652732753239    
  -6.772607682876106    -6.772572189088447    -6.772559328473522    -6.772580451298864    -6.772640913445154    
  -6.772737698217081    -6.772860257839515    -6.772993557017123    -6.7731213384674085    -6.773227983031098    
  -6.773299319650925    -6.773324503122975    -6.775021078053369    -6.774978414976966    -6.7748560102575714    
  -6.774668135983866    -6.774432710625573    -6.77416792262407    -6.7738919038237615    -6.773623324741737    
  -6.77337997877904    -6.773174711432273    -6.773011751671697    -6.772887552041598    -6.7727959553525885    
  -6.772732652012703    -6.772695556746933    -6.772683384941276    -6.772695556746933    -6.772732652012703    
  -6.7727959553525885    -6.772887552041597    -6.773011751671697    -6.773174711432273    -6.77337997877904    
  -6.773623324741737    -6.7738919038237615    -6.77416792262407    -6.774432710625573    -6.774668135983866    
  -6.774856010257572    -6.774978414976966    -6.775021078053369    -6.777816704246209    -6.7777461477695375    
  -6.777541754797942    -6.777221733798763    -6.776807829681006    -6.776320956273989    -6.775783108509879    
  -6.775221910894945    -6.774670599152195    -6.774160490858764    -6.773711910555947    -6.773332704127735    
  -6.773025589524625    -6.7727959553525885    -6.772652732753243    -6.77260395604324    -6.772652732753243    
  -6.7727959553525885    -6.773025589524625    -6.773332704127735    -6.773711910555947    -6.774160490858764    
  -6.774670599152195    -6.775221910894945    -6.775783108509881    -6.776320956273991    -6.776807829681006    
  -6.777221733798763    -6.777541754797942    -6.7777461477695375    -6.777816704246209    -6.781561276187176    
  -6.781457586250511    -6.781154270193182    -6.780669982515981    -6.7800256628947935    -6.77924185429695    
  -6.778345701229133    -6.777380226545367    -6.776403812433633    -6.7754761281592915    -6.7746411639946675    
  -6.773922365971239    -6.773332704127735    -6.772887552041598    -6.772607682876106    -6.772511880123798    
  -6.772607682876106    -6.772887552041598    -6.773332704127734    -6.773922365971238    -6.7746411639946675    
  -6.7754761281592915    -6.776403812433633    -6.777380226545367    -6.778345701229133    -6.77924185429695    
  -6.780025662894795    -6.780669982515981    -6.781154270193182    -6.781457586250511    -6.781561276187176    
  -6.785866384203329    -6.785739554172064    -6.785361531720389    -6.784736677743551    -6.7838681915377705    
  -6.782764939177076    -6.78145772038621    -6.780011626570143    -6.778520326433403    -6.777082052682876    
  -6.775773593219389    -6.774641163994669    -6.773711910555948    -6.773011751671698    -6.772572189088448    
  -6.772421778062294    -6.772572189088448    -6.773011751671698    -6.773711910555948    -6.774641163994669    
  -6.775773593219389    -6.777082052682876    -6.778520326433403    -6.780011626570143    -6.781457720386211    
  -6.782764939177076    -6.7838681915377705    -6.7847366777435525    -6.785361531720389    -6.785739554172064    
  -6.785866384203329    -6.78992831665323    -6.789822908329613    -6.789488260344071    -6.788874697850219    
  -6.787921732424964    -6.786593787672985    -6.784915254476576    -6.782981315806081    -6.780935573589803    
  -6.7789285852722445    -6.777082052682876    -6.775476128159292    -6.774160490858764    -6.773174711432273    
  -6.772559328473523    -6.772349433308962    -6.772559328473523    -6.773174711432273    -6.774160490858764    
  -6.7754761281592915    -6.777082052682876    -6.7789285852722445    -6.780935573589803    -6.782981315806081    
  -6.784915254476576    -6.786593787672985    -6.787921732424964    -6.788874697850219    -6.789488260344071    
  -6.789822908329613    -6.78992831665323    -6.792384232713541    -6.792399547329671    -6.7923789983395855    
  -6.7921464751115534    -6.791486287465783    -6.790242503612005    -6.788397880868986    -6.786083374182615    
  -6.783519153089827    -6.7809355735898045    -6.778520326433402    -6.776403812433633    -6.774670599152195    
  -6.773379978779041    -6.772580451298862    -6.7723090959341805    -6.772580451298862    -6.773379978779041    
  -6.774670599152195    -6.776403812433633    -6.778520326433402    -6.7809355735898045    -6.783519153089827    
  -6.786083374182615    -6.788397880868986    -6.790242503612005    -6.791486287465783    -6.7921464751115534    
  -6.7923789983395855    -6.792399547329671    -6.792384232713541    -6.791565546750937    -6.791844173058893    
  -6.792541449143489    -6.793280250648969    -6.793570694674502    -6.793007220509368    -6.791442459588865    
  -6.78902400857687    -6.786083374182614    -6.782981315806081    -6.7800116265701424    -6.777380226545367    
  -6.775221910894945    -6.7736233247417355    -6.772640913445154    -6.772309363975778    -6.772640913445154    
  -6.7736233247417355    -6.775221910894945    -6.777380226545367    -6.7800116265701424    -6.782981315806081    
  -6.786083374182614    -6.789024008576872    -6.791442459588865    -6.793007220509368    -6.793570694674502    
  -6.793280250648969    -6.792541449143489    -6.791844173058893    -6.791565546750937    -6.78646398291379    
  -6.787116603738592    -6.788876825069689    -6.791173008781906    -6.793179644600726    -6.7940985136916145    
  -6.793493687675526    -6.791442459588865    -6.788397880868986    -6.7849152544765765    -6.781457720386211    
  -6.778345701229133    -6.775783108509881    -6.773891903823762    -6.772737698217083    -6.772350222909094    
  -6.772737698217083    -6.773891903823762    -6.775783108509881    -6.778345701229133    -6.781457720386211    
  -6.7849152544765765    -6.788397880868988    -6.791442459588865    -6.793493687675526    -6.7940985136916145    
  -6.793179644600726    -6.791173008781906    -6.788876825069689    -6.787116603738593    -6.78646398291379    
  -6.777860140465044    -6.7788628968261575    -6.781686190200672    -6.785720962052153    -6.789910784831473    
  -6.7930080478301695    -6.7940985136916145    -6.79300722050937    -6.790242503612006    -6.786593787672985    
  -6.782764939177076    -6.77924185429695    -6.776320956273991    -6.774167922624071    -6.7728602578395165    
  -6.772423048094034    -6.7728602578395165    -6.774167922624071    -6.776320956273991    -6.77924185429695    
  -6.782764939177076    -6.786593787672985    -6.790242503612006    -6.79300722050937    -6.7940985136916145    
  -6.7930080478301695    -6.7899107848314735    -6.785720962052153    -6.781686190200671    -6.7788628968261575    
  -6.777860140465044    -6.768264490095915    -6.769439681538439    -6.772889953742087    -6.778221067131021    
  -6.784421409476817    -6.7899107848314735    -6.793179644600726    -6.793570694674502    -6.791486287465783    
  -6.787921732424964    -6.7838681915377705    -6.780025662894795    -6.7768078296810055    -6.774432710625573    
  -6.7729935570171245    -6.772513568897014    -6.7729935570171245    -6.774432710625573    -6.776807829681006    
  -6.780025662894795    -6.7838681915377705    -6.787921732424964    -6.791486287465783    -6.793570694674502    
  -6.793179644600726    -6.789910784831473    -6.784421409476815    -6.778221067131021    -6.772889953742087    
  -6.769439681538439    -6.768264490095915    -6.760310814718968    -6.7614396403209405    -6.7649132985321225    
  -6.770732343737721    -6.778221067131021    -6.785720962052152    -6.791173008781907    -6.793280250648968    
  -6.792146475111553    -6.788874697850221    -6.784736677743551    -6.780669982515981    -6.777221733798765    
  -6.774668135983865    -6.773121338467408    -6.772605987631917    -6.773121338467408    -6.774668135983865    
  -6.777221733798766    -6.780669982515981    -6.784736677743551    -6.788874697850221    -6.792146475111553    
  -6.793280250648968    -6.791173008781906    -6.785720962052152    -6.778221067131019    -6.770732343737721    
  -6.7649132985321225    -6.7614396403209405    -6.760310814718968    -6.75519189329835    -6.7561523063850855    
  -6.759261628056267    -6.7649132985321225    -6.772889953742084    -6.781686190200671    -6.788876825069689    
  -6.79254144914349    -6.7923789983395855    -6.789488260344072    -6.785361531720387    -6.781154270193181    
  -6.777541754797942    -6.774856010257572    -6.7732279830310995    -6.772685672700075    -6.7732279830310995    
  -6.774856010257572    -6.777541754797942    -6.781154270193182    -6.785361531720387    -6.789488260344072    
  -6.7923789983395855    -6.79254144914349    -6.788876825069687    -6.781686190200671    -6.7728899537420855    
  -6.7649132985321225    -6.759261628056265    -6.7561523063850855    -6.75519189329835    -6.752626010229884    
  -6.753430574345991    -6.7561523063850855    -6.761439640320939    -6.7694396815384374    -6.778862896826157    
  -6.787116603738592    -6.791844173058893    -6.792399547329669    -6.789822908329613    -6.785739554172062    
  -6.781457586250511    -6.777746147769535    -6.774978414976966    -6.773299319650927    -6.772739943180374    
  -6.773299319650927    -6.774978414976966    -6.777746147769535    -6.781457586250511    -6.785739554172062    
  -6.789822908329613    -6.792399547329669    -6.7918441730588945    -6.787116603738592    -6.778862896826155    
  -6.7694396815384374    -6.761439640320939    -6.7561523063850855    -6.753430574345991    -6.752626010229884    
  -6.751881252562119    -6.752626010229884    -6.755191893298351    -6.760310814718969    -6.768264490095917    
  -6.777860140465044    -6.786463982913792    -6.791565546750939    -6.792384232713541    -6.789928316653234    
  -6.785866384203329    -6.781561276187176    -6.777816704246209    -6.775021078053369    -6.773324503122975    
  -6.7727592676331145    -6.773324503122975    -6.775021078053369    -6.777816704246211    -6.781561276187176    
  -6.785866384203329    -6.789928316653232    -6.792384232713541    -6.791565546750939    -6.786463982913792    
  -6.777860140465044    -6.768264490095915    -6.760310814718969    -6.755191893298351    -6.752626010229884    
  -6.751881252562119    -6.752626010229884    -6.753430574345992    -6.756152306385085    -6.761439640320939    
  -6.7694396815384374    -6.778862896826157    -6.787116603738592    -6.791844173058893    -6.792399547329671    
  -6.789822908329613    -6.785739554172064    -6.781457586250511    -6.777746147769536    -6.774978414976966    
  -6.773299319650925    -6.772739943180374    -6.773299319650927    -6.774978414976966    -6.7777461477695375    
  -6.781457586250511    -6.785739554172066    -6.789822908329613    -6.792399547329671    -6.791844173058893    
  -6.787116603738592    -6.778862896826157    -6.7694396815384374    -6.761439640320939    -6.756152306385085    
  -6.753430574345992    -6.752626010229884    -6.753430574345991    -6.754291298551612    -6.757156081303559    
  -6.762588442359226    -6.770607118055194    -6.7798386991177555    -6.787739728776395    -6.792103429282105    
  -6.792408179354597    -6.789719517889327    -6.785618812254443    -6.7813613776445685    -6.7776834567751605    
  -6.7749437358549915    -6.773282175853037    -6.772728677691602    -6.773282175853037    -6.7749437358549915    
  -6.7776834567751605    -6.7813613776445685    -6.785618812254443    -6.789719517889327    -6.792408179354597    
  -6.792103429282105    -6.787739728776395    -6.7798386991177555    -6.770607118055194    -6.762588442359226    
  -6.757156081303559    -6.754291298551612    -6.753430574345991    -6.756152306385085    -6.757156081303559    
  -6.7603671127041345    -6.7660952298595705    -6.7740161199157765    -6.782575098264003    -6.7894138227564635    
  -6.792747176327433    -6.792370651058005    -6.789391990607561    -6.785258970422586    -6.781079989817286    
  -6.777502007261026    -6.77484456275139    -6.773234190826064    -6.772697798411591    -6.773234190826062    
  -6.77484456275139    -6.7775020072610275    -6.781079989817286    -6.785258970422586    -6.789391990607561    
  -6.792370651058005    -6.792747176327435    -6.7894138227564635    -6.782575098264003    -6.774016119915778    
  -6.766095229859571    -6.7603671127041345    -6.757156081303559    -6.756152306385085    -6.761439640320937    
  -6.762588442359226    -6.766095229859571    -6.771891514125242    -6.779232938042842    -6.786455298783441    
  -6.791578361766657    -6.793412210634369    -6.792119350355734    -6.7887935125068575    -6.784664174718572    
  -6.780630701704195    -6.777218244512363    -6.774693218805014    -6.773164142577786    -6.772654726151294    
  -6.773164142577786    -6.774693218805014    -6.777218244512363    -6.780630701704193    -6.784664174718572    
  -6.7887935125068575    -6.792119350355734    -6.793412210634369    -6.791578361766655    -6.786455298783441    
  -6.779232938042842    -6.771891514125242    -6.766095229859571    -6.7625884423592275    -6.761439640320937    
  -6.7694396815384374    -6.770607118055194    -6.774016119915779    -6.779232938042841    -6.785223063007974    
  -6.790435159677475    -6.793433465060717    -6.793629948301841    -6.791449762860475    -6.787866995399952    
  -6.783837168637703    -6.7800325524024965    -6.776851504864639    -6.774504984426754    -6.773083442247189    
  -6.772609342114275    -6.773083442247187    -6.774504984426754    -6.776851504864639    -6.7800325524024965    
  -6.783837168637703    -6.787866995399951    -6.791449762860475    -6.793629948301841    -6.793433465060717    
  -6.790435159677475    -6.785223063007974    -6.779232938042842    -6.774016119915779    -6.770607118055194    
  -6.7694396815384374    -6.778862896826155    -6.779838699117758    -6.782575098264003    -6.786455298783443    
  -6.790435159677477    -6.793309160109211    -6.7942166976210965    -6.793016213240744    -6.790214911741231    
  -6.786578698965374    -6.782785602844929    -6.779303789295998    -6.7764200367603555    -6.774295251529494    
  -6.773004875365751    -6.772573439291797    -6.773004875365751    -6.774295251529494    -6.7764200367603555    
  -6.779303789295998    -6.782785602844929    -6.786578698965374    -6.790214911741231    -6.793016213240744    
  -6.7942166976210965    -6.793309160109211    -6.790435159677477    -6.786455298783443    -6.782575098264003    
  -6.779838699117758    -6.778862896826155    -6.78711660373859    -6.787739728776395    -6.7894138227564635    
  -6.791578361766655    -6.793433465060716    -6.7942166976210965    -6.793521855247227    -6.79143548955359    
  -6.7883998859444805    -6.784951556327216    -6.781537654600946    -6.778468649567036    -6.775942907939842    
  -6.774079306373624    -6.772941951575539    -6.772560110017798    -6.772941951575539    -6.774079306373624    
  -6.775942907939842    -6.778468649567036    -6.781537654600946    -6.784951556327216    -6.7883998859444805    
  -6.791435489553592    -6.793521855247227    -6.7942166976210965    -6.793433465060716    -6.791578361766655    
  -6.7894138227564635    -6.787739728776395    -6.78711660373859    -6.791844173058891    -6.792103429282103    
  -6.792747176327433    -6.79341221063437    -6.793629948301841    -6.793016213240741    -6.791435489553592    
  -6.789033546825384    -6.786130900643239    -6.783076117632067    -6.780154324415922    -6.777566445644665    
  -6.775444323087704    -6.7738726601564405    -6.772906737202236    -6.772580725291291    -6.772906737202236    
  -6.7738726601564405    -6.775444323087704    -6.777566445644665    -6.780154324415922    -6.783076117632067    
  -6.786130900643239    -6.789033546825384    -6.791435489553592    -6.793016213240741    -6.793629948301841    
  -6.79341221063437    -6.792747176327433    -6.792103429282103    -6.791844173058891    -6.792399547329671    
  -6.792408179354597    -6.792370651058005    -6.792119350355738    -6.791449762860475    -6.790214911741229    
  -6.788399885944482    -6.786130900643239    -6.783619965545086    -6.781090156909691    -6.77872464334813    
  -6.7766514793992565    -6.774953792461912    -6.773689647098793    -6.772906483690125    -6.772640666141015    
  -6.772906483690123    -6.773689647098795    -6.774953792461912    -6.7766514793992565    -6.77872464334813    
  -6.781090156909691    -6.783619965545086    -6.786130900643239    -6.788399885944482    -6.790214911741229    
  -6.791449762860475    -6.792119350355738    -6.792370651058005    -6.792408179354599    -6.792399547329671    
  -6.78982290832961    -6.789719517889327    -6.789391990607561    -6.788793512506857    -6.787866995399951    
  -6.786578698965372    -6.784951556327216    -6.783076117632067    -6.7810901569096895    -6.779139473586007    
  -6.777343087668449    -6.775780065864822    -6.774499493610538    -6.773540080265934    -6.77294120331408    
  -6.772736942583813    -6.7729412033140814    -6.773540080265934    -6.774499493610538    -6.775780065864821    
  -6.777343087668449    -6.779139473586007    -6.7810901569096895    -6.783076117632067    -6.784951556327216    
  -6.786578698965372    -6.787866995399951    -6.788793512506857    -6.789391990607561    -6.789719517889327    
  -6.78982290832961    -6.785739554172064    -6.785618812254446    -6.785258970422586    -6.784664174718572    
  -6.783837168637703    -6.782785602844931    -6.781537654600944    -6.780154324415924    -6.778724643348132    
  -6.777343087668449    -6.776084462002959    -6.77499446846593    -6.774100074824531    -6.773426432844234    
  -6.773003668136392    -6.772859031693601    -6.773003668136392    -6.773426432844234    -6.774100074824531    
  -6.77499446846593    -6.776084462002961    -6.777343087668449    -6.778724643348132    -6.780154324415924    
  -6.781537654600944    -6.782785602844931    -6.783837168637703    -6.784664174718572    -6.7852589704225865    