#     DFTpy    
  CRYSTAL 
    
  PRIMVEC    
  3.405    0.0    0.0    
  0.0    3.405    0.0    
  0.0    0.0    3.405    
  PRIMCOORD    
  4    1    
  Si    0.0    0.0    0.0    
  Si    0.0    1.7025    1.7025    
  Si    1.7025    0.0    1.7025    
  Si    1.7025    1.7025    0.0    
  BEGIN_BLOCK_DATAGRID_3D    
  3d_datagrid_density    
  BEGIN_DATAGRID_3D#0    
  33    33    33    
  0.0    0.0    0.0    
  3.4050000127007154    0.0    0.0    
  0.0    3.4050000127007154    0.0    
  0.0    0.0    3.4050000127007154    
  -6.751144551133275    -6.751682120301116    -6.753529583520079    -6.757186809183441    -6.7627746834156675    
  -6.769335571140529    -6.775027918320954    -6.778351057907202    -6.7791003392578775    -6.778116213465214    
  -6.77642785934978    -6.774726621040812    -6.773329028858306    -6.7723207015483995    -6.771675103177408    
  -6.771326339141128    -6.77121728452226    -6.771326339141128    -6.771675103177408    -6.7723207015483995    
  -6.773329028858306    -6.774726621040812    -6.77642785934978    -6.778116213465214    -6.7791003392578775    
  -6.778351057907202    -6.775027918320954    -6.769335571140529    -6.7627746834156675    -6.757186809183441    
  -6.753529583520079    -6.751682120301116    -6.751144551133275    -6.751682120301116    -6.752258444548505    
  -6.754202098686349    -6.757946123675154    -6.7635152894460004    -6.769903168546304    -6.775327763540243    
  -6.778407818498632    -6.779015579101424    -6.777990567899965    -6.776322523835075    -6.77466725772826    
  -6.773321284741768    -6.77236010870218    -6.771751343167891    -6.771425676808417    -6.771324447476207    
  -6.771425676808417    -6.771751343167891    -6.77236010870218    -6.773321284741768    -6.77466725772826    
  -6.776322523835075    -6.777990567899965    -6.779015579101424    -6.778407818498632    -6.775327763540243    
  -6.769903168546304    -6.7635152894460004    -6.757946123675156    -6.754202098686349    -6.752258444548505    
  -6.751682120301116    -6.753529583520079    -6.754202098686349    -6.756368947892261    -6.760265930792376    
  -6.765667869199758    -6.771477321187091    -6.77611010437796    -6.778511647574962    -6.778742980733639    
  -6.777623177165051    -6.776027457851583    -6.774513536572664    -6.773322852953611    -6.772502373841101    
  -6.77200292913582    -6.771745561130829    -6.771667426091512    -6.771745561130829    -6.77200292913582    
  -6.7725023738411    -6.773322852953611    -6.774513536572664    -6.7760274578515824    -6.777623177165051    
  -6.778742980733639    -6.778511647574962    -6.77611010437796    -6.771477321187091    -6.765667869199758    
  -6.760265930792376    -6.756368947892261    -6.754202098686349    -6.753529583520079    -6.757186809183441    
  -6.757946123675157    -6.760265930792378    -6.764098411974995    -6.768933517662872    -6.773665620681645    
  -6.777062045332308    -6.778505100610307    -6.778255079722219    -6.777057043382217    -6.775612243588808    
  -6.774340848433413    -6.7734070080609055    -6.772815682232318    -6.772492436220787    -6.772344348640753    
  -6.772303027317623    -6.772344348640753    -6.772492436220787    -6.772815682232318    -6.7734070080609055    
  -6.774340848433413    -6.775612243588808    -6.777057043382217    -6.778255079722219    -6.778505100610307    
  -6.777062045332308    -6.773665620681645    -6.768933517662872    -6.764098411974995    -6.760265930792378    
  -6.757946123675157    -6.757186809183441    -6.7627746834156675    -6.7635152894460004    -6.765667869199757    
  -6.768933517662872    -6.772643794065572    -6.775858839764291    -6.777794605728692    -6.778241231184047    
  -6.777571554679322    -6.776391011820141    -6.77519916249054    -6.774269279763997    -6.773681646149762    
  -6.773392679167367    -6.773298442683414    -6.773290911092477    -6.773296686392599    -6.773290911092477    
  -6.773298442683414    -6.773392679167367    -6.773681646149762    -6.774269279763997    -6.77519916249054    
  -6.7763910118201425    -6.777571554679322    -6.778241231184047    -6.777794605728692    -6.775858839764291    
  -6.772643794065572    -6.768933517662872    -6.765667869199757    -6.7635152894460004    -6.7627746834156675    
  -6.769335571140529    -6.769903168546304    -6.771477321187091    -6.773665620681647    -6.775858839764291    
  -6.77742901358199    -6.7780164573303034    -6.777681077608961    -6.77679072726378    -6.77577376772832    
  -6.774939553086992    -6.77443088645553    -6.77425060244504    -6.774307557945863    -6.7744697958519895    
  -6.774617272186371    -6.774674564470473    -6.774617272186371    -6.7744697958519895    -6.774307557945865    
  -6.77425060244504    -6.77443088645553    -6.774939553086992    -6.77577376772832    -6.77679072726378    
  -6.777681077608961    -6.7780164573303034    -6.77742901358199    -6.775858839764291    -6.773665620681647    
  -6.771477321187091    -6.769903168546304    -6.769335571140529    -6.775027918320956    -6.775327763540245    
  -6.77611010437796    -6.777062045332306    -6.777794605728694    -6.7780164573303034    -6.7776680790807475    
  -6.776922897611782    -6.776067163076539    -6.7753616250984345    -6.774964604592124    -6.7749170109889745    
  -6.775157557161548    -6.775555447129947    -6.7759596601221235    -6.776248106218595    -6.776351239900754    
  -6.776248106218595    -6.7759596601221235    -6.775555447129947    -6.775157557161548    -6.7749170109889745    
  -6.774964604592124    -6.7753616250984345    -6.776067163076539    -6.776922897611782    -6.7776680790807475    
  -6.7780164573303034    -6.777794605728694    -6.777062045332306    -6.77611010437796    -6.775327763540245    
  -6.775027918320956    -6.778351057907202    -6.778407818498632    -6.77851164757496    -6.778505100610304    
  -6.778241231184049    -6.7776810776089595    -6.77692289761178    -6.776151546663239    -6.7755558208894815    
  -6.775267503910669    -6.7753361821274405    -6.775725374273109    -6.776322914371137    -6.7769731179325605    
  -6.777527773913971    -6.777888270816347    -6.778011627374815    -6.777888270816347    -6.777527773913971    
  -6.7769731179325605    -6.776322914371137    -6.775725374273109    -6.7753361821274405    -6.775267503910669    
  -6.7755558208894815    -6.776151546663239    -6.77692289761178    -6.7776810776089595    -6.778241231184049    
  -6.778505100610304    -6.77851164757496    -6.778407818498632    -6.778351057907202    -6.779100339257878    
  -6.779015579101424    -6.778742980733637    -6.778255079722216    -6.777571554679324    -6.776790727263778    
  -6.776067163076537    -6.7755558208894815    -6.7753638562990774    -6.775528830816963    -6.776014357193738    
  -6.776714419115277    -6.777475101142399    -6.77814266079854    -6.778619226192349    -6.7788851574065445    
  -6.77896773233645    -6.7788851574065445    -6.778619226192349    -6.77814266079854    -6.777475101142399    
  -6.776714419115277    -6.776014357193738    -6.775528830816963    -6.7753638562990774    -6.7755558208894815    
  -6.776067163076537    -6.776790727263778    -6.777571554679324    -6.778255079722216    -6.778742980733637    
  -6.779015579101424    -6.779100339257878    -6.778116213465214    -6.777990567899964    -6.777623177165051    
  -6.777057043382215    -6.776391011820141    -6.775773767728319    -6.775361625098434    -6.775267503910669    
  -6.775528830816963    -6.776097219960742    -6.776842324203672    -6.777576893200274    -6.778117460297257    
  -6.778366630712227    -6.778363449929205    -6.77825428954244    -6.7781958605470365    -6.77825428954244    
  -6.778363449929205    -6.778366630712227    -6.778117460297257    -6.777576893200274    -6.776842324203672    
  -6.776097219960742    -6.775528830816963    -6.775267503910669    -6.775361625098434    -6.775773767728319    
  -6.776391011820141    -6.777057043382217    -6.777623177165053    -6.777990567899964    -6.778116213465214    
  -6.776427859349778    -6.776322523835076    -6.776027457851581    -6.775612243588807    -6.775199162490537    
  -6.774939553086992    -6.774964604592124    -6.775336182127439    -6.776014357193738    -6.776842324203672    
  -6.7775613181395995    -6.777887232840012    -6.777648355361228    -6.776904805839416    -6.775947102597801    
  -6.775162465245431    -6.774862085730693    -6.775162465245431    -6.775947102597801    -6.776904805839416    
  -6.777648355361228    -6.77788723284001    -6.7775613181395995    -6.776842324203672    -6.776014357193738    
  -6.775336182127439    -6.774964604592124    -6.774939553086992    -6.775199162490537    -6.775612243588807    
  -6.776027457851581    -6.776322523835076    -6.776427859349778    -6.774726621040812    -6.77466725772826    
  -6.774513536572664    -6.774340848433413    -6.774269279763997    -6.77443088645553    -6.774917010988974    
  -6.775725374273109    -6.776714419115279    -6.777576893200272    -6.777887232840014    -6.777280463846206    
  -6.775698563308484    -6.773501060624257    -6.771313576644222    -6.769741886452819    -6.769175482519668    
  -6.769741886452819    -6.771313576644222    -6.773501060624257    -6.775698563308484    -6.777280463846206    
  -6.777887232840014    -6.777576893200272    -6.776714419115279    -6.775725374273109    -6.774917010988974    
  -6.77443088645553    -6.774269279763997    -6.774340848433413    -6.774513536572664    -6.77466725772826    
  -6.774726621040812    -6.773329028858306    -6.773321284741767    -6.7733228529536085    -6.7734070080609055    
  -6.773681646149762    -6.774250602445039    -6.775157557161548    -6.776322914371136    -6.7774751011423975    
  -6.778117460297255    -6.777648355361228    -6.775698563308484    -6.772479646275753    -6.768774113721754    
  -6.765517429214398    -6.7633728215334035    -6.762635331583798    -6.7633728215334035    -6.765517429214398    
  -6.768774113721754    -6.772479646275753    -6.775698563308484    -6.777648355361228    -6.778117460297255    
  -6.7774751011423975    -6.776322914371136    -6.775157557161548    -6.774250602445039    -6.773681646149762    
  -6.7734070080609055    -6.7733228529536085    -6.773321284741767    -6.773329028858306    -6.7723207015483995    
  -6.77236010870218    -6.7725023738411    -6.772815682232318    -6.773392679167369    -6.774307557945863    
  -6.775555447129947    -6.7769731179325605    -6.77814266079854    -6.778366630712225    -6.776904805839417    
  -6.773501060624257    -6.768774113721754    -6.763953174231568    -6.760137326581215    -6.757830187383235    
  -6.757075523821329    -6.757830187383235    -6.760137326581215    -6.763953174231568    -6.768774113721754    
  -6.773501060624257    -6.776904805839417    -6.778366630712225    -6.77814266079854    -6.7769731179325605    
  -6.775555447129947    -6.774307557945863    -6.773392679167369    -6.772815682232318    -6.7725023738411    
  -6.77236010870218    -6.7723207015483995    -6.771675103177408    -6.771751343167892    -6.77200292913582    
  -6.772492436220785    -6.773298442683414    -6.774469795851989    -6.775959660122122    -6.777527773913971    
  -6.77861922619235    -6.778363449929205    -6.7759471025978035    -6.771313576644222    -6.765517429214398    
  -6.760137326581215    -6.7562624362164225    -6.754111108048346    -6.7534440652131895    -6.754111108048346    
  -6.7562624362164225    -6.760137326581215    -6.765517429214398    -6.771313576644222    -6.7759471025978035    
  -6.778363449929205    -6.77861922619235    -6.777527773913971    -6.775959660122122    -6.774469795851989    
  -6.773298442683414    -6.772492436220785    -6.77200292913582    -6.771751343167892    -6.771675103177408    
  -6.771326339141128    -6.771425676808415    -6.771745561130829    -6.772344348640751    -6.773290911092477    
  -6.774617272186368    -6.776248106218595    -6.777888270816348    -6.7788851574065445    -6.778254289542438    
  -6.775162465245431    -6.769741886452819    -6.7633728215334035    -6.757830187383234    -6.754111108048346    
  -6.752184129629361    -6.751613522427096    -6.752184129629361    -6.7541111080483445    -6.757830187383234    
  -6.7633728215334035    -6.769741886452821    -6.775162465245431    -6.778254289542438    -6.7788851574065445    
  -6.777888270816348    -6.776248106218595    -6.7746172721863696    -6.773290911092477    -6.772344348640751    
  -6.771745561130827    -6.771425676808415    -6.771326339141128    -6.77121728452226    -6.771324447476209    
  -6.771667426091512    -6.772303027317621    -6.773296686392599    -6.774674564470472    -6.776351239900754    
  -6.778011627374817    -6.778967732336448    -6.778195860547038    -6.774862085730692    -6.769175482519668    
  -6.762635331583796    -6.757075523821331    -6.753444065213191    -6.751613522427098    -6.751081692888253    
  -6.751613522427098    -6.753444065213191    -6.757075523821331    -6.762635331583796    -6.769175482519668    
  -6.774862085730692    -6.778195860547038    -6.778967732336448    -6.778011627374817    -6.776351239900754    
  -6.774674564470472    -6.773296686392599    -6.772303027317621    -6.771667426091512    -6.771324447476209    
  -6.77121728452226    -6.771326339141128    -6.771425676808415    -6.771745561130829    -6.772344348640751    
  -6.773290911092477    -6.774617272186368    -6.776248106218595    -6.777888270816348    -6.7788851574065445    
  -6.778254289542438    -6.775162465245431    -6.769741886452819    -6.7633728215334035    -6.757830187383234    
  -6.754111108048346    -6.752184129629361    -6.751613522427098    -6.752184129629361    -6.7541111080483445    
  -6.757830187383234    -6.7633728215334035    -6.769741886452819    -6.775162465245431    -6.778254289542438    
  -6.7788851574065445    -6.777888270816348    -6.776248106218595    -6.7746172721863696    -6.773290911092477    
  -6.772344348640751    -6.771745561130827    -6.771425676808415    -6.771326339141128    -6.771675103177408    
  -6.771751343167892    -6.77200292913582    -6.772492436220785    -6.773298442683414    -6.774469795851989    
  -6.775959660122122    -6.777527773913971    -6.77861922619235    -6.778363449929205    -6.7759471025978035    
  -6.771313576644221    -6.765517429214398    -6.760137326581215    -6.7562624362164225    -6.754111108048346    
  -6.7534440652131895    -6.754111108048346    -6.7562624362164225    -6.760137326581215    -6.765517429214398    
  -6.771313576644222    -6.7759471025978035    -6.778363449929205    -6.77861922619235    -6.777527773913971    
  -6.775959660122122    -6.774469795851989    -6.773298442683414    -6.772492436220785    -6.77200292913582    
  -6.771751343167892    -6.771675103177408    -6.7723207015483995    -6.77236010870218    -6.7725023738411    
  -6.772815682232318    -6.773392679167369    -6.774307557945863    -6.775555447129947    -6.7769731179325605    
  -6.77814266079854    -6.778366630712225    -6.776904805839417    -6.773501060624257    -6.768774113721756    
  -6.763953174231568    -6.760137326581215    -6.757830187383235    -6.757075523821329    -6.757830187383235    
  -6.760137326581215    -6.763953174231568    -6.768774113721756    -6.773501060624257    -6.776904805839417    
  -6.778366630712225    -6.77814266079854    -6.7769731179325605    -6.775555447129947    -6.774307557945863    
  -6.773392679167369    -6.772815682232318    -6.7725023738411    -6.77236010870218    -6.7723207015483995    
  -6.773329028858306    -6.773321284741767    -6.7733228529536085    -6.7734070080609055    -6.773681646149762    
  -6.774250602445039    -6.775157557161548    -6.776322914371136    -6.7774751011423975    -6.778117460297255    
  -6.777648355361228    -6.775698563308484    -6.772479646275753    -6.768774113721754    -6.765517429214398    
  -6.7633728215334035    -6.762635331583798    -6.7633728215334035    -6.765517429214398    -6.768774113721754    
  -6.772479646275753    -6.775698563308484    -6.777648355361228    -6.778117460297255    -6.7774751011423975    
  -6.776322914371136    -6.775157557161548    -6.774250602445039    -6.773681646149762    -6.7734070080609055    
  -6.7733228529536085    -6.773321284741767    -6.773329028858306    -6.774726621040812    -6.77466725772826    
  -6.774513536572664    -6.774340848433413    -6.774269279763997    -6.77443088645553    -6.774917010988974    
  -6.775725374273109    -6.776714419115279    -6.777576893200272    -6.777887232840014    -6.777280463846206    
  -6.775698563308484    -6.773501060624257    -6.771313576644222    -6.769741886452819    -6.769175482519668    
  -6.769741886452819    -6.771313576644222    -6.773501060624257    -6.775698563308484    -6.777280463846206    
  -6.777887232840014    -6.777576893200272    -6.776714419115279    -6.775725374273109    -6.774917010988974    
  -6.77443088645553    -6.774269279763997    -6.774340848433413    -6.774513536572664    -6.77466725772826    
  -6.774726621040812    -6.776427859349778    -6.776322523835076    -6.776027457851581    -6.775612243588808    
  -6.775199162490537    -6.774939553086992    -6.774964604592124    -6.775336182127439    -6.776014357193738    
  -6.776842324203672    -6.7775613181395995    -6.777887232840012    -6.777648355361228    -6.776904805839416    
  -6.775947102597801    -6.775162465245431    -6.774862085730693    -6.775162465245431    -6.775947102597801    
  -6.776904805839416    -6.777648355361228    -6.777887232840012    -6.7775613181395995    -6.776842324203672    
  -6.776014357193738    -6.775336182127439    -6.774964604592124    -6.774939553086992    -6.775199162490537    
  -6.775612243588808    -6.776027457851581    -6.776322523835076    -6.776427859349778    -6.778116213465214    
  -6.777990567899964    -6.777623177165051    -6.777057043382217    -6.776391011820141    -6.775773767728319    
  -6.775361625098434    -6.775267503910669    -6.775528830816963    -6.776097219960742    -6.776842324203672    
  -6.777576893200274    -6.778117460297257    -6.778366630712227    -6.778363449929205    -6.77825428954244    
  -6.7781958605470365    -6.77825428954244    -6.778363449929205    -6.778366630712227    -6.778117460297257    
  -6.777576893200274    -6.776842324203672    -6.776097219960742    -6.775528830816963    -6.775267503910669    
  -6.775361625098434    -6.775773767728319    -6.776391011820141    -6.777057043382217    -6.777623177165051    
  -6.777990567899964    -6.778116213465214    -6.779100339257878    -6.779015579101424    -6.778742980733637    
  -6.778255079722216    -6.777571554679324    -6.776790727263778    -6.776067163076537    -6.7755558208894815    
  -6.7753638562990774    -6.775528830816963    -6.776014357193738    -6.776714419115277    -6.777475101142399    
  -6.77814266079854    -6.778619226192349    -6.7788851574065445    -6.77896773233645    -6.7788851574065445    
  -6.778619226192349    -6.77814266079854    -6.777475101142399    -6.776714419115277    -6.776014357193738    
  -6.775528830816963    -6.7753638562990774    -6.7755558208894815    -6.776067163076537    -6.776790727263778    
  -6.777571554679324    -6.778255079722216    -6.778742980733637    -6.779015579101424    -6.779100339257878    
  -6.778351057907202    -6.778407818498632    -6.77851164757496    -6.778505100610304    -6.778241231184047    
  -6.7776810776089595    -6.77692289761178    -6.776151546663239    -6.7755558208894815    -6.775267503910669    
  -6.7753361821274405    -6.775725374273109    -6.776322914371137    -6.7769731179325605    -6.777527773913971    
  -6.777888270816347    -6.778011627374815    -6.777888270816347    -6.777527773913971    -6.7769731179325605    
  -6.776322914371137    -6.775725374273109    -6.7753361821274405    -6.775267503910669    -6.7755558208894815    
  -6.776151546663239    -6.77692289761178    -6.7776810776089595    -6.778241231184047    -6.778505100610304    
  -6.77851164757496    -6.778407818498632    -6.778351057907202    -6.775027918320956    -6.775327763540245    
  -6.77611010437796    -6.777062045332306    -6.777794605728694    -6.7780164573303034    -6.7776680790807475    
  -6.776922897611782    -6.776067163076539    -6.7753616250984345    -6.774964604592124    -6.7749170109889745    
  -6.775157557161548    -6.775555447129947    -6.7759596601221235    -6.776248106218595    -6.776351239900754    
  -6.776248106218595    -6.7759596601221235    -6.775555447129947    -6.775157557161548    -6.7749170109889745    
  -6.774964604592124    -6.7753616250984345    -6.776067163076539    -6.776922897611782    -6.7776680790807475    
  -6.7780164573303034    -6.777794605728694    -6.777062045332306    -6.77611010437796    -6.775327763540245    
  -6.775027918320956    -6.769335571140529    -6.769903168546304    -6.771477321187091    -6.773665620681647    
  -6.775858839764293    -6.77742901358199    -6.7780164573303034    -6.777681077608961    -6.77679072726378    
  -6.77577376772832    -6.774939553086992    -6.77443088645553    -6.77425060244504    -6.774307557945865    
  -6.7744697958519895    -6.774617272186371    -6.774674564470473    -6.774617272186371    -6.7744697958519895    
  -6.774307557945865    -6.77425060244504    -6.77443088645553    -6.774939553086992    -6.77577376772832    
  -6.77679072726378    -6.777681077608961    -6.7780164573303034    -6.77742901358199    -6.775858839764293    
  -6.773665620681647    -6.771477321187091    -6.769903168546304    -6.769335571140529    -6.7627746834156675    
  -6.7635152894460004    -6.765667869199757    -6.768933517662872    -6.772643794065572    -6.775858839764291    
  -6.777794605728692    -6.778241231184047    -6.777571554679322    -6.776391011820141    -6.77519916249054    
  -6.774269279763997    -6.773681646149762    -6.773392679167367    -6.773298442683414    -6.773290911092477    
  -6.773296686392599    -6.773290911092477    -6.773298442683414    -6.773392679167367    -6.773681646149762    
  -6.774269279763997    -6.77519916249054    -6.7763910118201425    -6.777571554679322    -6.778241231184047    
  -6.777794605728692    -6.775858839764291    -6.772643794065572    -6.768933517662872    -6.765667869199757    
  -6.7635152894460004    -6.7627746834156675    -6.757186809183441    -6.757946123675157    -6.760265930792378    
  -6.764098411974995    -6.768933517662872    -6.773665620681645    -6.777062045332308    -6.778505100610307    
  -6.778255079722219    -6.777057043382217    -6.775612243588808    -6.774340848433413    -6.7734070080609055    
  -6.772815682232318    -6.772492436220787    -6.772344348640753    -6.772303027317623    -6.772344348640753    
  -6.772492436220787    -6.772815682232318    -6.7734070080609055    -6.774340848433413    -6.775612243588808    
  -6.777057043382217    -6.778255079722219    -6.778505100610307    -6.777062045332308    -6.773665620681645    
  -6.768933517662872    -6.764098411974995    -6.760265930792378    -6.757946123675157    -6.757186809183441    
  -6.753529583520079    -6.754202098686349    -6.756368947892261    -6.760265930792376    -6.765667869199758    
  -6.771477321187091    -6.77611010437796    -6.778511647574962    -6.778742980733639    -6.777623177165051    
  -6.776027457851583    -6.774513536572664    -6.773322852953611    -6.772502373841101    -6.77200292913582    
  -6.771745561130829    -6.771667426091512    -6.771745561130829    -6.77200292913582    -6.7725023738411    
  -6.773322852953611    -6.774513536572664    -6.7760274578515824    -6.777623177165051    -6.778742980733639    
  -6.778511647574962    -6.77611010437796    -6.771477321187091    -6.765667869199758    -6.760265930792376    
  -6.756368947892261    -6.754202098686349    -6.753529583520079    -6.751682120301116    -6.752258444548505    
  -6.754202098686349    -6.757946123675154    -6.7635152894460004    -6.769903168546304    -6.775327763540243    
  -6.778407818498632    -6.779015579101424    -6.777990567899965    -6.776322523835075    -6.77466725772826    
  -6.773321284741768    -6.77236010870218    -6.771751343167891    -6.771425676808417    -6.771324447476207    
  -6.771425676808417    -6.771751343167891    -6.77236010870218    -6.773321284741768    -6.77466725772826    
  -6.776322523835075    -6.777990567899965    -6.779015579101424    -6.778407818498632    -6.775327763540243    
  -6.769903168546304    -6.7635152894460004    -6.757946123675156    -6.754202098686349    -6.752258444548505    
  -6.751682120301116    -6.751144551133275    -6.751682120301116    -6.753529583520079    -6.757186809183441    
  -6.7627746834156675    -6.769335571140529    -6.775027918320954    -6.778351057907202    -6.7791003392578775    
  -6.778116213465214    -6.77642785934978    -6.774726621040812    -6.773329028858306    -6.7723207015483995    
  -6.771675103177408    -6.771326339141128    -6.77121728452226    -6.771326339141128    -6.771675103177408    
  -6.7723207015483995    -6.773329028858306    -6.774726621040812    -6.77642785934978    -6.778116213465214    
  -6.7791003392578775    -6.778351057907202    -6.775027918320954    -6.769335571140529    -6.7627746834156675    
  -6.757186809183441    -6.753529583520079    -6.751682120301116    -6.751144551133275    -6.751682120301115    
  -6.752258444548505    -6.754202098686347    -6.757946123675156    -6.7635152894460004    -6.7699031685463025    
  -6.775327763540243    -6.778407818498631    -6.779015579101422    -6.777990567899965    -6.776322523835075    
  -6.77466725772826    -6.773321284741767    -6.77236010870218    -6.771751343167892    -6.771425676808417    
  -6.771324447476209    -6.771425676808417    -6.771751343167892    -6.77236010870218    -6.773321284741767    
  -6.77466725772826    -6.776322523835075    -6.777990567899965    -6.779015579101422    -6.778407818498631    
  -6.775327763540243    -6.7699031685463025    -6.7635152894460004    -6.757946123675156    -6.754202098686347    
  -6.752258444548505    -6.751682120301115    -6.752258444548505    -6.752870016779424    -6.754898214704062    
  -6.758709333385241    -6.76423852865543    -6.77044074628242    -6.775597785858471    -6.778442863857487    
  -6.778917724745277    -6.777857392728627    -6.776212309593066    -6.77460387496327    -6.773309300209775    
  -6.7723943490973415    -6.7718211851607215    -6.771517581879606    -6.771423775544713    -6.771517581879604    
  -6.7718211851607215    -6.7723943490973415    -6.773309300209775    -6.774603874963269    -6.776212309593066    
  -6.777857392728627    -6.778917724745277    -6.778442863857487    -6.775597785858471    -6.77044074628242    
  -6.76423852865543    -6.758709333385243    -6.754898214704062    -6.752870016779424    -6.752258444548505    
  -6.754202098686347    -6.754898214704062    -6.757113547252589    -6.761021772857802    -6.766328679158778    
  -6.771924249294881    -6.7762955855274285    -6.778486885007759    -6.778609071170171    -6.777468443292497    
  -6.775902230900461    -6.774437084037182    -6.77329707770508    -6.772520376734011    -6.772053347201445    
  -6.771815378232381    -6.771743631802901    -6.771815378232381    -6.772053347201445    -6.772520376734011    
  -6.77329707770508    -6.774437084037182    -6.775902230900461    -6.777468443292497    -6.778609071170171    
  -6.778486885007759    -6.7762955855274285    -6.771924249294881    -6.766328679158778    -6.761021772857802    
  -6.757113547252589    -6.754898214704062    -6.754202098686347    -6.757946123675156    -6.7587093333852435    
  -6.761021772857804    -6.764789800849798    -6.7694673153032365    -6.773965769888115    -6.777123912958587    
  -6.778396933227525    -6.778070510777478    -6.7768695301567945    -6.775461323408275    -6.774240263492914    
  -6.773355782073835    -6.772805108513682    -6.772510410392601    -6.772378537124155    -6.772342374057681    
  -6.772378537124155    -6.772510410392601    -6.772805108513682    -6.773355782073835    -6.774240263492914    
  -6.775461323408275    -6.7768695301567945    -6.778070510777478    -6.778396933227527    -6.777123912958587    
  -6.773965769888115    -6.7694673153032365    -6.764789800849798    -6.761021772857804    -6.7587093333852435    
  -6.757946123675156    -6.7635152894460004    -6.76423852865543    -6.766328679158776    -6.7694673153032365    
  -6.772984705412185    -6.775977149940894    -6.777719525687431    -6.778045154882316    -6.777332041785722    
  -6.77616357910939    -6.775012598747829    -6.774132851635178    -6.77359262352286    -6.77334143720097    
  -6.773272626614723    -6.773278866779413    -6.773288875708592    -6.773278866779413    -6.773272626614723    
  -6.77334143720097    -6.77359262352286    -6.774132851635178    -6.775012598747829    -6.77616357910939    
  -6.777332041785722    -6.778045154882316    -6.777719525687431    -6.775977149940894    -6.772984705412185    
  -6.7694673153032365    -6.766328679158776    -6.76423852865543    -6.7635152894460004    -6.7699031685463025    
  -6.7704407462824205    -6.771924249294882    -6.773965769888116    -6.775977149940896    -6.777368822801209    
  -6.777820021051068    -6.777409849074372    -6.776501111626684    -6.775504300465724    -6.774710706697787    
  -6.774249598081669    -6.774114188118997    -6.774206975364508    -6.7743933273063615    -6.774553859379522    
  -6.774615166055438    -6.774553859379522    -6.7743933273063615    -6.774206975364508    -6.774114188118997    
  -6.774249598081669    -6.774710706697787    -6.775504300465724    -6.776501111626684    -6.777409849074372    
  -6.777820021051068    -6.777368822801209    -6.775977149940896    -6.773965769888116    -6.771924249294881    
  -6.7704407462824205    -6.7699031685463025    -6.775327763540245    -6.775597785858473    -6.7762955855274285    
  -6.777123912958586    -6.777719525687432    -6.777820021051068    -6.777386843532224    -6.776599626241787    
  -6.775738575097324    -6.77505362235763    -6.774692781034658    -6.774688219919275    -6.774971065237949    