 CRYSTAL
 PRIMVEC
    3.446719254    0.000006370   -0.000000000
   -0.761354110    3.242716780   -0.000000000
   -0.000000000   -0.000000000    3.563587050
 PRIMCOORD
           4           1
Si       -0.073455650    0.790026023    1.203883169
Si        1.725973217    1.371007676    0.495345261
Si        0.073463232    1.930267140    2.816497407
Si        1.720749489    0.470145462    2.081448264
BEGIN_BLOCK_DATAGRID_3D
3D_PWSCF
BEGIN_DATAGRID_3D_UNKNOWN
          37          33          37
  0.000000  0.000000  0.000000
    3.446719    0.000006   -0.000000
   -0.761354    3.242717   -0.000000
   -0.000000   -0.000000    3.563587
  0.262713E-01  0.268022E-01  0.272462E-01  0.276147E-01  0.279328E-01  0.282337E-01
  0.285546E-01  0.289337E-01  0.294036E-01  0.299822E-01  0.306650E-01  0.314217E-01
  0.321993E-01  0.329292E-01  0.335338E-01  0.339335E-01  0.340559E-01  0.338486E-01
  0.332934E-01  0.324131E-01  0.312682E-01  0.299443E-01  0.285378E-01  0.271444E-01
  0.258511E-01  0.247309E-01  0.238377E-01  0.232043E-01  0.228422E-01  0.227434E-01
  0.228840E-01  0.232280E-01  0.237305E-01  0.243405E-01  0.250024E-01  0.256615E-01
  0.262713E-01  0.273594E-01  0.277477E-01  0.280465E-01  0.282741E-01  0.284673E-01
  0.286720E-01  0.289368E-01  0.293082E-01  0.298264E-01  0.305176E-01  0.313859E-01
  0.324078E-01  0.335314E-01  0.346808E-01  0.357611E-01  0.366653E-01  0.372849E-01
  0.375273E-01  0.373364E-01  0.367069E-01  0.356858E-01  0.343600E-01  0.328390E-01
  0.312396E-01  0.296750E-01  0.282461E-01  0.270328E-01  0.260878E-01  0.254350E-01
  0.250719E-01  0.249752E-01  0.251074E-01  0.254215E-01  0.258633E-01  0.263730E-01
  0.268896E-01  0.273594E-01  0.292810E-01  0.295417E-01  0.297125E-01  0.298143E-01
  0.298923E-01  0.300039E-01  0.302090E-01  0.305648E-01  0.311222E-01  0.319187E-01
  0.329702E-01  0.342617E-01  0.357438E-01  0.373336E-01  0.389197E-01  0.403688E-01
  0.415371E-01  0.422906E-01  0.425301E-01  0.422142E-01  0.413670E-01  0.400698E-01
  0.384414E-01  0.366195E-01  0.347460E-01  0.329544E-01  0.313579E-01  0.300371E-01
  0.290344E-01  0.283559E-01  0.279794E-01  0.278653E-01  0.279641E-01  0.282193E-01
  0.285676E-01  0.289421E-01  0.292810E-01  0.320203E-01  0.321700E-01  0.322341E-01
  0.322310E-01  0.322093E-01  0.322345E-01  0.323773E-01  0.327076E-01  0.332906E-01
  0.341795E-01  0.354045E-01  0.369608E-01  0.388016E-01  0.408372E-01  0.429395E-01
  0.449502E-01  0.466933E-01  0.479957E-01  0.487157E-01  0.487713E-01  0.481565E-01
  0.469377E-01  0.452362E-01  0.432059E-01  0.410149E-01  0.388300E-01  0.368012E-01
  0.350446E-01  0.336307E-01  0.325820E-01  0.318815E-01  0.314877E-01  0.313463E-01
  0.313970E-01  0.315735E-01  0.318043E-01  0.320203E-01  0.355436E-01  0.355959E-01
  0.355757E-01  0.354940E-01  0.353969E-01  0.353526E-01  0.354399E-01  0.357419E-01
  0.363403E-01  0.373056E-01  0.386831E-01  0.404783E-01  0.426468E-01  0.450929E-01
  0.476738E-01  0.502092E-01  0.524967E-01  0.543327E-01  0.555416E-01  0.560053E-01
  0.556841E-01  0.546204E-01  0.529249E-01  0.507559E-01  0.482982E-01  0.457454E-01
  0.432817E-01  0.410614E-01  0.391911E-01  0.377217E-01  0.366522E-01  0.359445E-01
  0.355399E-01  0.353706E-01  0.353647E-01  0.354469E-01  0.355436E-01  0.397988E-01
  0.397618E-01  0.396760E-01  0.395431E-01  0.394008E-01  0.393139E-01  0.393655E-01
  0.396494E-01  0.402626E-01  0.412907E-01  0.427908E-01  0.447748E-01  0.471988E-01
  0.499608E-01  0.529049E-01  0.558344E-01  0.585307E-01  0.607790E-01  0.623936E-01
  0.632421E-01  0.632611E-01  0.624613E-01  0.609214E-01  0.587763E-01  0.562026E-01
  0.534030E-01  0.505862E-01  0.479422E-01  0.456186E-01  0.437055E-01  0.422331E-01
  0.411805E-01  0.404910E-01  0.400893E-01  0.398934E-01  0.398220E-01  0.397988E-01
  0.447234E-01  0.446032E-01  0.444662E-01  0.443057E-01  0.441481E-01  0.440494E-01
  0.440916E-01  0.443759E-01  0.450105E-01  0.460911E-01  0.476792E-01  0.497843E-01
  0.523550E-01  0.552757E-01  0.583733E-01  0.614363E-01  0.642458E-01  0.666083E-01
  0.683774E-01  0.694581E-01  0.698002E-01  0.693889E-01  0.682436E-01  0.664248E-01
  0.640452E-01  0.612725E-01  0.583159E-01  0.553946E-01  0.527025E-01  0.503811E-01
  0.485081E-01  0.470979E-01  0.461112E-01  0.454717E-01  0.450866E-01  0.448639E-01
  0.447234E-01  0.502405E-01  0.500511E-01  0.498786E-01  0.497118E-01  0.495651E-01
  0.494822E-01  0.495388E-01  0.498392E-01  0.504991E-01  0.516190E-01  0.532561E-01
  0.554060E-01  0.579927E-01  0.608676E-01  0.638218E-01  0.666219E-01  0.690648E-01
  0.710257E-01  0.724711E-01  0.734285E-01  0.739325E-01  0.739800E-01  0.735177E-01
  0.724706E-01  0.707970E-01  0.685407E-01  0.658506E-01  0.629527E-01  0.600936E-01
  0.574859E-01  0.552766E-01  0.535372E-01  0.522654E-01  0.513989E-01  0.508395E-01
  0.504827E-01  0.502405E-01  0.562308E-01  0.559997E-01  0.558163E-01  0.556682E-01
  0.555595E-01  0.555186E-01  0.556099E-01  0.559358E-01  0.566164E-01  0.577536E-01
  0.593954E-01  0.615112E-01  0.639793E-01  0.665867E-01  0.690557E-01  0.711128E-01
  0.725840E-01  0.734665E-01  0.739236E-01  0.742013E-01  0.745085E-01  0.749205E-01
  0.753396E-01  0.755273E-01  0.752005E-01  0.741555E-01  0.723644E-01  0.699899E-01
  0.673179E-01  0.646557E-01  0.622538E-01  0.602697E-01  0.587622E-01  0.577026E-01
  0.570004E-01  0.565427E-01  0.562308E-01  0.624918E-01  0.622551E-01  0.620932E-01
  0.619957E-01  0.619592E-01  0.619949E-01  0.621497E-01  0.625165E-01  0.632150E-01
  0.643473E-01  0.659503E-01  0.679603E-01  0.701913E-01  0.723343E-01  0.740059E-01
  0.748692E-01  0.747894E-01  0.739326E-01  0.727283E-01  0.717099E-01  0.713237E-01
  0.717870E-01  0.730241E-01  0.746804E-01  0.762198E-01  0.770996E-01  0.769698E-01
  0.757943E-01  0.738258E-01  0.714637E-01  0.690975E-01  0.670111E-01  0.653550E-01
  0.641572E-01  0.633540E-01  0.628345E-01  0.624918E-01  0.687235E-01  0.685069E-01
  0.683918E-01  0.683743E-01  0.684491E-01  0.686109E-01  0.688811E-01  0.693316E-01
  0.700714E-01  0.711985E-01  0.727393E-01  0.745971E-01  0.765149E-01  0.780701E-01
  0.787497E-01  0.781348E-01  0.761337E-01  0.731091E-01  0.697905E-01  0.670178E-01
  0.654786E-01  0.655488E-01  0.672359E-01  0.701749E-01  0.736774E-01  0.768860E-01
  0.790406E-01  0.797479E-01  0.790837E-01  0.774710E-01  0.754421E-01  0.734435E-01
  0.717539E-01  0.704854E-01  0.696216E-01  0.690701E-01  0.687235E-01  0.745584E-01
  0.743549E-01  0.742799E-01  0.743459E-01  0.745580E-01  0.749005E-01  0.753636E-01
  0.759810E-01  0.768325E-01  0.779999E-01  0.794979E-01  0.812037E-01  0.828004E-01
  0.837605E-01  0.834414E-01  0.813337E-01  0.773767E-01  0.721219E-01  0.665897E-01
  0.619033E-01  0.589503E-01  0.582309E-01  0.598489E-01  0.635212E-01  0.685648E-01
  0.739557E-01  0.785719E-01  0.815774E-01  0.827136E-01  0.822922E-01  0.809285E-01
  0.792344E-01  0.776430E-01  0.763760E-01  0.754845E-01  0.749109E-01  0.745584E-01
  0.796158E-01  0.793712E-01  0.792762E-01  0.793768E-01  0.797100E-01  0.802666E-01
  0.810062E-01  0.819064E-01  0.829897E-01  0.842986E-01  0.858274E-01  0.874388E-01
  0.887849E-01  0.892719E-01  0.881575E-01  0.848421E-01  0.792581E-01  0.720861E-01
  0.645805E-01  0.581040E-01  0.537050E-01  0.519665E-01  0.530620E-01  0.568166E-01
  0.626648E-01  0.695957E-01  0.762902E-01  0.815253E-01  0.846329E-01  0.856769E-01
  0.852429E-01  0.840561E-01  0.826968E-01  0.815066E-01  0.806154E-01  0.800104E-01
  0.796158E-01  0.835491E-01  0.831657E-01  0.829330E-01  0.829531E-01  0.833256E-01
  0.840763E-01  0.851471E-01  0.864477E-01  0.879122E-01  0.895084E-01  0.911906E-01
  0.928150E-01  0.940422E-01  0.942756E-01  0.927335E-01  0.887406E-01  0.821643E-01
  0.736992E-01  0.647219E-01  0.567742E-01  0.510550E-01  0.482296E-01  0.485222E-01
  0.518413E-01  0.577567E-01  0.653773E-01  0.733653E-01  0.802750E-01  0.850901E-01
  0.875714E-01  0.881659E-01  0.876186E-01  0.866056E-01  0.855669E-01  0.847042E-01
  0.840486E-01  0.835491E-01  0.860858E-01  0.854453E-01  0.849219E-01  0.846962E-01
  0.849610E-01  0.858124E-01  0.872018E-01  0.889755E-01  0.909556E-01  0.929971E-01
  0.949819E-01  0.967539E-01  0.980166E-01  0.982425E-01  0.966942E-01  0.926658E-01
  0.859120E-01  0.769999E-01  0.672631E-01  0.583227E-01  0.515229E-01  0.476544E-01
  0.470166E-01  0.495782E-01  0.550028E-01  0.625266E-01  0.709004E-01  0.786373E-01
  0.845325E-01  0.881007E-01  0.896030E-01  0.897105E-01  0.891107E-01  0.882877E-01
  0.874845E-01  0.867607E-01  0.860858E-01  0.870754E-01  0.860808E-01  0.851278E-01
  0.844878E-01  0.844668E-01  0.852613E-01  0.868672E-01  0.890923E-01  0.916477E-01
  0.942491E-01  0.966696E-01  0.987174E-01  0.100149E+00  0.100560E+00  0.993452E-01
  0.958481E-01  0.897178E-01  0.812886E-01  0.716686E-01  0.623999E-01  0.549146E-01
  0.501648E-01  0.485817E-01  0.502079E-01  0.547637E-01  0.615744E-01  0.695120E-01
  0.771797E-01  0.833622E-01  0.874562E-01  0.895619E-01  0.902178E-01  0.900370E-01
  0.894744E-01  0.887664E-01  0.879741E-01  0.870754E-01  0.865304E-01  0.851585E-01
  0.837131E-01  0.825524E-01  0.820959E-01  0.826534E-01  0.842957E-01  0.868324E-01
  0.898933E-01  0.930593E-01  0.959717E-01  0.983708E-01  0.100046E+00  0.100729E+00
  0.100006E+00  0.973597E-01  0.924121E-01  0.852554E-01  0.766484E-01  0.678702E-01
  0.602997E-01  0.550095E-01  0.525959E-01  0.532157E-01  0.566512E-01  0.622979E-01
  0.691560E-01  0.759956E-01  0.817257E-01  0.857554E-01  0.880864E-01  0.891096E-01
  0.893034E-01  0.890282E-01  0.884638E-01  0.876413E-01  0.865304E-01  0.846168E-01
  0.829602E-01  0.810859E-01  0.794163E-01  0.784629E-01  0.786402E-01  0.801091E-01
  0.827214E-01  0.860770E-01  0.896594E-01  0.929867E-01  0.957099E-01  0.976159E-01
  0.985425E-01  0.982701E-01  0.964834E-01  0.928791E-01  0.874013E-01  0.804590E-01
  0.729465E-01  0.660104E-01  0.607063E-01  0.577481E-01  0.574262E-01  0.596216E-01
  0.638261E-01  0.691915E-01  0.746993E-01  0.794581E-01  0.829728E-01  0.852049E-01
  0.864118E-01  0.869155E-01  0.869464E-01  0.865948E-01  0.858374E-01  0.846168E-01
  0.815752E-01  0.798472E-01  0.777463E-01  0.757191E-01  0.743306E-01  0.740725E-01
  0.751927E-01  0.776135E-01  0.809587E-01  0.846736E-01  0.881930E-01  0.910858E-01
  0.931085E-01  0.941572E-01  0.941620E-01  0.930044E-01  0.905272E-01  0.866533E-01
  0.815537E-01  0.757459E-01  0.700295E-01  0.652767E-01  0.621939E-01  0.611637E-01
  0.621878E-01  0.649006E-01  0.686447E-01  0.726387E-01  0.762127E-01  0.789961E-01
  0.809433E-01  0.822051E-01  0.829614E-01  0.833147E-01  0.832613E-01  0.827144E-01
  0.815752E-01  0.776238E-01  0.761104E-01  0.740846E-01  0.719666E-01  0.703237E-01
  0.696857E-01  0.703688E-01  0.723764E-01  0.753973E-01  0.789000E-01  0.822949E-01
  0.851021E-01  0.870457E-01  0.880406E-01  0.881040E-01  0.872610E-01  0.855011E-01
  0.828104E-01  0.792617E-01  0.751096E-01  0.708184E-01  0.669844E-01  0.641784E-01
  0.627856E-01  0.629057E-01  0.643338E-01  0.666254E-01  0.692372E-01  0.717055E-01
  0.737738E-01  0.754004E-01  0.766600E-01  0.776277E-01  0.783104E-01  0.786314E-01
  0.784505E-01  0.776238E-01  0.729117E-01  0.718832E-01  0.702511E-01  0.683597E-01
  0.667229E-01  0.658604E-01  0.661264E-01  0.675992E-01  0.700559E-01  0.730371E-01
  0.759887E-01  0.784302E-01  0.800719E-01  0.808301E-01  0.807589E-01  0.799605E-01
  0.785239E-01  0.765120E-01  0.739902E-01  0.710829E-01  0.680219E-01  0.651469E-01
  0.628380E-01  0.614045E-01  0.609863E-01  0.615114E-01  0.627273E-01  0.642982E-01
  0.659279E-01  0.674473E-01  0.688192E-01  0.700716E-01  0.712183E-01  0.722135E-01
  0.729419E-01  0.732338E-01  0.729117E-01  0.675514E-01  0.671728E-01  0.661727E-01
  0.647880E-01  0.634304E-01  0.625584E-01  0.625243E-01  0.634607E-01  0.652378E-01
  0.674995E-01  0.697753E-01  0.716318E-01  0.727928E-01  0.731750E-01  0.728398E-01
  0.719159E-01  0.705373E-01  0.688149E-01  0.668341E-01  0.646753E-01  0.624496E-01
  0.603252E-01  0.585167E-01  0.572305E-01  0.565949E-01  0.566150E-01  0.571761E-01
  0.580957E-01  0.591982E-01  0.603742E-01  0.615900E-01  0.628491E-01  0.641392E-01
  0.653980E-01  0.665040E-01  0.672848E-01  0.675514E-01  0.616895E-01  0.619748E-01
  0.616958E-01  0.609794E-01  0.601088E-01  0.594395E-01  0.592789E-01  0.597825E-01
  0.609006E-01  0.623910E-01  0.638969E-01  0.650675E-01  0.656657E-01  0.656134E-01
  0.649649E-01  0.638453E-01  0.623963E-01  0.607441E-01  0.589869E-01  0.571962E-01
  0.554351E-01  0.537841E-01  0.523527E-01  0.512610E-01  0.506023E-01  0.504090E-01
  0.506441E-01  0.512211E-01  0.520430E-01  0.530387E-01  0.541774E-01  0.554507E-01
  0.568400E-01  0.582876E-01  0.596851E-01  0.608779E-01  0.616895E-01  0.555519E-01
  0.563838E-01  0.567584E-01  0.567160E-01  0.564159E-01  0.560929E-01  0.559773E-01
  0.562126E-01  0.568035E-01  0.576105E-01  0.583966E-01  0.589111E-01  0.589729E-01
  0.585164E-01  0.575822E-01  0.562768E-01  0.547290E-01  0.530607E-01  0.513708E-01
  0.497297E-01  0.481870E-01  0.467887E-01  0.455917E-01  0.446619E-01  0.440568E-01
  0.438076E-01  0.439101E-01  0.443295E-01  0.450160E-01  0.459239E-01  0.470246E-01
  0.483033E-01  0.497404E-01  0.512892E-01  0.528623E-01  0.543329E-01  0.555519E-01
  0.494317E-01  0.506265E-01  0.514832E-01  0.519893E-01  0.522094E-01  0.522697E-01
  0.523135E-01  0.524480E-01  0.527015E-01  0.530097E-01  0.532376E-01  0.532301E-01
  0.528676E-01  0.521030E-01  0.509653E-01  0.495367E-01  0.479242E-01  0.462349E-01
  0.445610E-01  0.429723E-01  0.415178E-01  0.402357E-01  0.391633E-01  0.383387E-01
  0.377941E-01  0.375485E-01  0.376051E-01  0.379522E-01  0.385666E-01  0.394199E-01
  0.404865E-01  0.417463E-01  0.431776E-01  0.447427E-01  0.463749E-01  0.479768E-01
  0.494317E-01  0.436396E-01  0.450122E-01  0.461500E-01  0.470150E-01  0.476145E-01
  0.479972E-01  0.482342E-01  0.483895E-01  0.484915E-01  0.485182E-01  0.484042E-01
  0.480667E-01  0.474389E-01  0.464955E-01  0.452597E-01  0.437934E-01  0.421800E-01
  0.405074E-01  0.388564E-01  0.372940E-01  0.358728E-01  0.346347E-01  0.336148E-01
  0.328412E-01  0.323321E-01  0.320952E-01  0.321302E-01  0.324319E-01  0.329904E-01
  0.337887E-01  0.348045E-01  0.360136E-01  0.373903E-01  0.389011E-01  0.404961E-01
  0.421046E-01  0.436396E-01  0.384517E-01  0.398532E-01  0.410952E-01  0.421319E-01
  0.429428E-01  0.435339E-01  0.439305E-01  0.441632E-01  0.442503E-01  0.441863E-01
  0.439415E-01  0.434747E-01  0.427528E-01  0.417674E-01  0.405409E-01  0.391222E-01
  0.375756E-01  0.359704E-01  0.343736E-01  0.328469E-01  0.314458E-01  0.302192E-01
  0.292076E-01  0.284399E-01  0.279306E-01  0.276811E-01  0.276865E-01  0.279409E-01
  0.284383E-01  0.291678E-01  0.301104E-01  0.312396E-01  0.325252E-01  0.339342E-01
  0.354271E-01  0.369536E-01  0.384517E-01  0.340755E-01  0.354019E-01  0.366170E-01
  0.376766E-01  0.385515E-01  0.392313E-01  0.397210E-01  0.400336E-01  0.401790E-01
  0.401549E-01  0.399434E-01  0.395186E-01  0.388596E-01  0.379630E-01  0.368488E-01
  0.355564E-01  0.341367E-01  0.326444E-01  0.311343E-01  0.296623E-01  0.282849E-01
  0.270572E-01  0.260272E-01  0.252297E-01  0.246823E-01  0.243876E-01  0.243395E-01
  0.245302E-01  0.249527E-01  0.255978E-01  0.264484E-01  0.274777E-01  0.286522E-01
  0.299366E-01  0.312951E-01  0.326896E-01  0.340755E-01  0.306334E-01  0.318223E-01
  0.329251E-01  0.339059E-01  0.347385E-01  0.354112E-01  0.359259E-01  0.362922E-01
  0.365182E-01  0.366014E-01  0.365254E-01  0.362640E-01  0.357924E-01  0.350999E-01
  0.341953E-01  0.331055E-01  0.318688E-01  0.305283E-01  0.291311E-01  0.277289E-01
  0.263796E-01  0.251431E-01  0.240747E-01  0.232168E-01  0.225950E-01  0.222183E-01
  0.220847E-01  0.221869E-01  0.225165E-01  0.230627E-01  0.238083E-01  0.247267E-01
  0.257829E-01  0.269382E-01  0.281550E-01  0.293984E-01  0.306334E-01  0.281639E-01
  0.291863E-01  0.301315E-01  0.309752E-01  0.317013E-01  0.323054E-01  0.327949E-01
  0.331839E-01  0.334848E-01  0.336974E-01  0.338046E-01  0.337752E-01  0.335741E-01
  0.331744E-01  0.325655E-01  0.317538E-01  0.307595E-01  0.296134E-01  0.283557E-01
  0.270370E-01  0.257178E-01  0.244636E-01  0.233369E-01  0.223893E-01  0.216567E-01
  0.211589E-01  0.209026E-01  0.208851E-01  0.210984E-01  0.215293E-01  0.221585E-01
  0.229586E-01  0.238933E-01  0.249211E-01  0.259999E-01  0.270918E-01  0.281639E-01
  0.266438E-01  0.274946E-01  0.282670E-01  0.289501E-01  0.295413E-01  0.300473E-01
  0.304846E-01  0.308755E-01  0.312389E-01  0.315797E-01  0.318825E-01  0.321127E-01
  0.322250E-01  0.321752E-01  0.319285E-01  0.314642E-01  0.307771E-01  0.298785E-01
  0.287982E-01  0.275849E-01  0.263024E-01  0.250231E-01  0.238186E-01  0.227516E-01
  0.218712E-01  0.212111E-01  0.207901E-01  0.206144E-01  0.206794E-01  0.209711E-01
  0.214674E-01  0.221380E-01  0.229448E-01  0.238433E-01  0.247869E-01  0.257324E-01
  0.266438E-01  0.260260E-01  0.267118E-01  0.273146E-01  0.278359E-01  0.282875E-01
  0.286889E-01  0.290670E-01  0.294521E-01  0.298701E-01  0.303323E-01  0.308276E-01
  0.313217E-01  0.317634E-01  0.320939E-01  0.322556E-01  0.321979E-01  0.318836E-01
  0.312960E-01  0.304461E-01  0.293743E-01  0.281459E-01  0.268406E-01  0.255416E-01
  0.243261E-01  0.232598E-01  0.223937E-01  0.217621E-01  0.213829E-01  0.212583E-01
  0.213764E-01  0.217130E-01  0.222346E-01  0.228998E-01  0.236608E-01  0.244668E-01
  0.252688E-01  0.260260E-01  0.262713E-01  0.268022E-01  0.272462E-01  0.276147E-01
  0.279328E-01  0.282337E-01  0.285546E-01  0.289337E-01  0.294036E-01  0.299822E-01
  0.306650E-01  0.314217E-01  0.321993E-01  0.329292E-01  0.335338E-01  0.339335E-01
  0.340559E-01  0.338486E-01  0.332934E-01  0.324131E-01  0.312682E-01  0.299443E-01
  0.285378E-01  0.271444E-01  0.258511E-01  0.247309E-01  0.238377E-01  0.232043E-01
  0.228422E-01  0.227434E-01  0.228840E-01  0.232280E-01  0.237305E-01  0.243405E-01
  0.250024E-01  0.256615E-01  0.262713E-01  0.286815E-01  0.290279E-01  0.292318E-01
  0.293117E-01  0.293016E-01  0.292436E-01  0.291836E-01  0.291676E-01  0.292358E-01
  0.294153E-01  0.297135E-01  0.301154E-01  0.305862E-01  0.310746E-01  0.315172E-01
  0.318427E-01  0.319806E-01  0.318759E-01  0.315035E-01  0.308770E-01  0.300457E-01
  0.290821E-01  0.280681E-01  0.270834E-01  0.261994E-01  0.254751E-01  0.249539E-01
  0.246609E-01  0.246023E-01  0.247659E-01  0.251243E-01  0.256384E-01  0.262595E-01
  0.269322E-01  0.275967E-01  0.281954E-01  0.286815E-01  0.304632E-01  0.307111E-01
  0.308114E-01  0.307880E-01  0.306843E-01  0.305529E-01  0.304494E-01  0.304275E-01
  0.305350E-01  0.308067E-01  0.312567E-01  0.318745E-01  0.326246E-01  0.334498E-01
  0.342740E-01  0.350054E-01  0.355451E-01  0.358037E-01  0.357228E-01  0.352910E-01
  0.345462E-01  0.335637E-01  0.324382E-01  0.312684E-01  0.301474E-01  0.291571E-01
  0.283624E-01  0.278061E-01  0.275055E-01  0.274535E-01  0.276232E-01  0.279738E-01
  0.284547E-01  0.290075E-01  0.295678E-01  0.300712E-01  0.304632E-01  0.330379E-01
  0.331953E-01  0.332060E-01  0.330941E-01  0.329080E-01  0.327086E-01  0.325610E-01
  0.325296E-01  0.326738E-01  0.330404E-01  0.336539E-01  0.345086E-01  0.355675E-01
  0.367645E-01  0.380090E-01  0.391892E-01  0.401799E-01  0.408593E-01  0.411336E-01
  0.409602E-01  0.403569E-01  0.393932E-01  0.381713E-01  0.368070E-01  0.354171E-01
  0.341105E-01  0.329804E-01  0.320944E-01  0.314874E-01  0.311607E-01  0.310885E-01
  0.312275E-01  0.315249E-01  0.319209E-01  0.323497E-01  0.327426E-01  0.330379E-01
  0.363707E-01  0.364440E-01  0.363821E-01  0.362027E-01  0.359526E-01  0.356962E-01
  0.355071E-01  0.354624E-01  0.356376E-01  0.360963E-01  0.368759E-01  0.379769E-01
  0.393590E-01  0.409446E-01  0.426256E-01  0.442703E-01  0.457309E-01  0.468592E-01
  0.475314E-01  0.476737E-01  0.472775E-01  0.463965E-01  0.451297E-01  0.436016E-01
  0.419477E-01  0.403037E-01  0.387939E-01  0.375177E-01  0.365368E-01  0.358697E-01
  0.354975E-01  0.353759E-01  0.354476E-01  0.356503E-01  0.359173E-01  0.361792E-01
  0.363707E-01  0.404092E-01  0.403982E-01  0.402778E-01  0.400548E-01  0.397669E-01
  0.394756E-01  0.392590E-01  0.392071E-01  0.394128E-01  0.399575E-01  0.408922E-01
  0.422228E-01  0.439051E-01  0.458487E-01  0.479273E-01  0.499895E-01  0.518711E-01
  0.534104E-01  0.544692E-01  0.549545E-01  0.548333E-01  0.541334E-01  0.529325E-01
  0.513446E-01  0.495080E-01  0.475751E-01  0.456981E-01  0.440105E-01  0.426089E-01
  0.415416E-01  0.408094E-01  0.403753E-01  0.401799E-01  0.401549E-01  0.402299E-01
  0.403362E-01  0.404092E-01  0.450848E-01  0.449806E-01  0.448075E-01  0.445611E-01
  0.442647E-01  0.439697E-01  0.437538E-01  0.437160E-01  0.439636E-01  0.445915E-01
  0.456587E-01  0.471725E-01  0.490818E-01  0.512815E-01  0.536249E-01  0.559427E-01
  0.580650E-01  0.598410E-01  0.611538E-01  0.619271E-01  0.621239E-01  0.617423E-01
  0.608114E-01  0.593940E-01  0.575917E-01  0.555453E-01  0.534210E-01  0.513850E-01
  0.495756E-01  0.480839E-01  0.469472E-01  0.461530E-01  0.456501E-01  0.453659E-01
  0.452229E-01  0.451496E-01  0.450848E-01  0.503176E-01  0.501090E-01  0.498819E-01
  0.496239E-01  0.493429E-01  0.490757E-01  0.488941E-01  0.489008E-01  0.492111E-01
  0.499244E-01  0.510976E-01  0.527277E-01  0.547459E-01  0.570209E-01  0.593757E-01
  0.616213E-01  0.635988E-01  0.652120E-01  0.664307E-01  0.672660E-01  0.677312E-01
  0.678120E-01  0.674619E-01  0.666277E-01  0.652946E-01  0.635224E-01  0.614512E-01
  0.592702E-01  0.571696E-01  0.553022E-01  0.537630E-01  0.525854E-01  0.517459E-01
  0.511792E-01  0.508016E-01  0.505345E-01  0.503176E-01  0.560097E-01  0.556971E-01
  0.554167E-01  0.551538E-01  0.549035E-01  0.546866E-01  0.545653E-01  0.546412E-01
  0.550315E-01  0.558319E-01  0.570841E-01  0.587574E-01  0.607416E-01  0.628503E-01
  0.648500E-01  0.665226E-01  0.677445E-01  0.685364E-01  0.690472E-01  0.694756E-01
  0.699717E-01  0.705616E-01  0.711250E-01  0.714352E-01  0.712517E-01  0.704282E-01
  0.689793E-01  0.670717E-01  0.649531E-01  0.628682E-01  0.610045E-01  0.594710E-01
  0.582968E-01  0.574437E-01  0.568318E-01  0.563754E-01  0.560097E-01  0.620154E-01
  0.616201E-01  0.613009E-01  0.610450E-01  0.608386E-01  0.606871E-01  0.606404E-01
  0.607961E-01  0.612704E-01  0.621504E-01  0.634536E-01  0.651027E-01  0.669127E-01
  0.685979E-01  0.698260E-01  0.703345E-01  0.700660E-01  0.692336E-01  0.682613E-01
  0.676281E-01  0.677002E-01  0.686153E-01  0.702347E-01  0.721699E-01  0.738903E-01
  0.749016E-01  0.749247E-01  0.739787E-01  0.723254E-01  0.703271E-01  0.683151E-01
  0.665204E-01  0.650592E-01  0.639457E-01  0.631223E-01  0.625030E-01  0.620154E-01
  0.681019E-01  0.676626E-01  0.673355E-01  0.671106E-01  0.669693E-01  0.669030E-01
  0.669466E-01  0.671894E-01  0.677444E-01  0.686909E-01  0.700196E-01  0.715939E-01
  0.731242E-01  0.741790E-01  0.742821E-01  0.731118E-01  0.707123E-01  0.675635E-01
  0.644367E-01  0.621302E-01  0.612418E-01  0.620525E-01  0.644867E-01  0.681064E-01
  0.721632E-01  0.757708E-01  0.781899E-01  0.790849E-01  0.785879E-01  0.771434E-01
  0.752682E-01  0.733774E-01  0.717232E-01  0.704053E-01  0.694115E-01  0.686694E-01
  0.681019E-01  0.739438E-01  0.734983E-01  0.731967E-01  0.730323E-01  0.729866E-01
  0.730396E-01  0.732072E-01  0.735633E-01  0.742125E-01  0.752262E-01  0.765722E-01
  0.780543E-01  0.792665E-01  0.796046E-01  0.784171E-01  0.753107E-01  0.704573E-01
  0.646554E-01  0.590576E-01  0.547602E-01  0.525284E-01  0.527386E-01  0.554138E-01
  0.602132E-01  0.663766E-01  0.727699E-01  0.781665E-01  0.816850E-01  0.830966E-01
  0.827827E-01  0.814216E-01  0.796595E-01  0.779417E-01  0.764947E-01  0.753784E-01
  0.745526E-01  0.739438E-01  0.791683E-01  0.787328E-01  0.784707E-01  0.783824E-01
  0.784573E-01  0.786703E-01  0.790163E-01  0.795428E-01  0.803348E-01  0.814510E-01
  0.828414E-01  0.842638E-01  0.852111E-01  0.849154E-01  0.825434E-01  0.776128E-01
  0.704108E-01  0.620545E-01  0.540718E-01  0.478159E-01  0.441352E-01  0.434070E-01
  0.457082E-01  0.508643E-01  0.583092E-01  0.669309E-01  0.751947E-01  0.816449E-01
  0.854912E-01  0.868309E-01  0.863799E-01  0.850003E-01  0.833674E-01  0.818748E-01
  0.806820E-01  0.797991E-01  0.791683E-01  0.834236E-01  0.829833E-01  0.827404E-01
  0.827099E-01  0.829025E-01  0.833005E-01  0.838803E-01  0.846528E-01  0.856664E-01
  0.869556E-01  0.884553E-01  0.899000E-01  0.907250E-01  0.900476E-01  0.868770E-01
  0.806128E-01  0.715793E-01  0.611289E-01  0.511161E-01  0.431323E-01  0.380854E-01
  0.362985E-01  0.378262E-01  0.426168E-01  0.503654E-01  0.601971E-01  0.705498E-01
  0.795716E-01  0.858834E-01  0.891234E-01  0.898650E-01  0.890902E-01  0.876875E-01
  0.862335E-01  0.850065E-01  0.840804E-01  0.834236E-01  0.864270E-01  0.859408E-01
  0.856623E-01  0.856322E-01  0.858983E-01  0.864683E-01  0.873098E-01  0.883914E-01
  0.897079E-01  0.912527E-01  0.929429E-01  0.945154E-01  0.954079E-01  0.947060E-01
  0.913222E-01  0.845108E-01  0.744966E-01  0.626865E-01  0.511468E-01  0.417075E-01
  0.354026E-01  0.325452E-01  0.331389E-01  0.371628E-01  0.444943E-01  0.545336E-01
  0.658924E-01  0.765937E-01  0.848413E-01  0.898017E-01  0.917721E-01  0.917154E-01
  0.906519E-01  0.893132E-01  0.880920E-01  0.871301E-01  0.864270E-01  0.879833E-01
  0.873964E-01  0.870071E-01  0.868912E-01  0.871489E-01  0.878324E-01  0.889160E-01
  0.903286E-01  0.919988E-01  0.938611E-01  0.958076E-01  0.975950E-01  0.987225E-01
  0.983432E-01  0.953705E-01  0.889274E-01  0.790024E-01  0.668099E-01  0.544207E-01
  0.438597E-01  0.363918E-01  0.324564E-01  0.320647E-01  0.351730E-01  0.417089E-01
  0.512407E-01  0.625913E-01  0.738705E-01  0.831327E-01  0.892293E-01  0.921684E-01
  0.927793E-01  0.920959E-01  0.909292E-01  0.897515E-01  0.887596E-01  0.879833E-01
  0.880013E-01  0.872634E-01  0.866889E-01  0.863950E-01  0.865430E-01  0.872444E-01
  0.884984E-01  0.902051E-01  0.922249E-01  0.944208E-01  0.966470E-01  0.986846E-01
  0.100131E+00  0.100291E+00  0.981973E-01  0.929259E-01  0.841786E-01  0.727596E-01
  0.604646E-01  0.493508E-01  0.409457E-01  0.359642E-01  0.345560E-01  0.366796E-01
  0.422232E-01  0.507834E-01  0.613237E-01  0.721386E-01  0.813714E-01  0.877918E-01
  0.912149E-01  0.922883E-01  0.919474E-01  0.909820E-01  0.898822E-01  0.888713E-01
  0.880013E-01  0.865158E-01  0.856070E-01  0.848027E-01  0.842616E-01  0.842056E-01
  0.848123E-01  0.861211E-01  0.880226E-01  0.903199E-01  0.928020E-01  0.952748E-01
  0.975326E-01  0.992750E-01  0.999984E-01  0.989518E-01  0.952977E-01  0.885365E-01
  0.789889E-01  0.679338E-01  0.571871E-01  0.484026E-01  0.426110E-01  0.402244E-01
  0.412927E-01  0.456631E-01  0.528848E-01  0.619908E-01  0.714871E-01  0.797596E-01
  0.856974E-01  0.890541E-01  0.903058E-01  0.902149E-01  0.894578E-01  0.884736E-01
  0.874733E-01  0.865158E-01  0.836857E-01  0.826457E-01  0.816283E-01  0.808250E-01
  0.805086E-01  0.809177E-01  0.821426E-01  0.840873E-01  0.865213E-01  0.891720E-01
  0.917941E-01  0.941793E-01  0.961057E-01  0.972482E-01  0.971053E-01  0.950421E-01
  0.905296E-01  0.835197E-01  0.747063E-01  0.654162E-01  0.571537E-01  0.511191E-01
  0.479953E-01  0.480063E-01  0.510293E-01  0.565916E-01  0.637952E-01  0.713760E-01
  0.780358E-01  0.828950E-01  0.857410E-01  0.869116E-01  0.869689E-01  0.864204E-01
  0.856013E-01  0.846747E-01  0.836857E-01  0.797458E-01  0.786861E-01  0.775520E-01
  0.765492E-01  0.759802E-01  0.761305E-01  0.771424E-01  0.789544E-01  0.813345E-01
  0.839754E-01  0.865901E-01  0.889580E-01  0.909039E-01  0.922330E-01  0.926595E-01
  0.917881E-01  0.892101E-01  0.847240E-01  0.785754E-01  0.715349E-01  0.647129E-01
  0.592130E-01  0.558403E-01  0.549852E-01  0.566301E-01  0.603726E-01  0.654502E-01
  0.708618E-01  0.756396E-01  0.791567E-01  0.812683E-01  0.822050E-01  0.823406E-01
  0.820059E-01  0.814127E-01  0.806550E-01  0.797458E-01  0.749416E-01  0.740223E-01
  0.729330E-01  0.718678E-01  0.711298E-01  0.710264E-01  0.717426E-01  0.732652E-01
  0.753925E-01  0.778176E-01  0.802346E-01  0.824115E-01  0.841967E-01  0.854744E-01
  0.861059E-01  0.858943E-01  0.846042E-01  0.820559E-01  0.782731E-01  0.736004E-01
  0.686924E-01  0.643503E-01  0.612897E-01  0.599587E-01  0.604552E-01  0.625226E-01
  0.656072E-01  0.689944E-01  0.720205E-01  0.742747E-01  0.756691E-01  0.763506E-01
  0.765431E-01  0.764317E-01  0.761201E-01  0.756327E-01  0.749416E-01  0.694962E-01
  0.688707E-01  0.680036E-01  0.670514E-01  0.662858E-01  0.660042E-01  0.664144E-01
  0.675523E-01  0.692699E-01  0.712960E-01  0.733359E-01  0.751578E-01  0.766228E-01
  0.776580E-01  0.782092E-01  0.782056E-01  0.775531E-01  0.761605E-01  0.740020E-01
  0.711964E-01  0.680539E-01  0.650388E-01  0.626484E-01  0.612629E-01  0.610372E-01
  0.618650E-01  0.634172E-01  0.652482E-01  0.669443E-01  0.682519E-01  0.691161E-01
  0.696207E-01  0.698875E-01  0.700051E-01  0.700034E-01  0.698553E-01  0.694962E-01
  0.636244E-01  0.633825E-01  0.628681E-01  0.621850E-01  0.615470E-01  0.612096E-01
  0.613755E-01  0.621168E-01  0.633483E-01  0.648610E-01  0.664012E-01  0.677552E-01
  0.687948E-01  0.694694E-01  0.697682E-01  0.696875E-01  0.692166E-01  0.683392E-01
  0.670495E-01  0.653868E-01  0.634753E-01  0.615378E-01  0.598543E-01  0.586788E-01
  0.581556E-01  0.582746E-01  0.588822E-01  0.597418E-01  0.606208E-01  0.613687E-01
  0.619451E-01  0.623897E-01  0.627639E-01  0.631044E-01  0.634028E-01  0.636048E-01
  0.636244E-01  0.575591E-01  0.577027E-01  0.575844E-01  0.572566E-01  0.568627E-01
  0.565942E-01  0.566212E-01  0.570299E-01  0.577902E-01  0.587663E-01  0.597675E-01
  0.606166E-01  0.611999E-01  0.614768E-01  0.614560E-01  0.611658E-01  0.606363E-01
  0.598919E-01  0.589515E-01  0.578386E-01  0.566035E-01  0.553419E-01  0.541905E-01
  0.532911E-01  0.527437E-01  0.525743E-01  0.527318E-01  0.531115E-01  0.535971E-01
  0.541016E-01  0.545907E-01  0.550758E-01  0.555839E-01  0.561272E-01  0.566832E-01